  MPI-parallelism will be employed.
------------------------------------------------------------
          Invoking FHI-aims ...
          Version 171221_1
          Compiled on 2018/11/06 at 11:18:49 on host headnode.

          When using FHI-aims, please cite the following reference:

          Volker Blum, Ralf Gehrke, Felix Hanke, Paula Havu,
          Ville Havu, Xinguo Ren, Karsten Reuter, and Matthias Scheffler,
          'Ab Initio Molecular Simulations with Numeric Atom-Centered Orbitals',
          Computer Physics Communications 180, 2175-2196 (2009)

          For any questions about FHI-aims, please visit the aimsclub website
          with its forums and wiki. Contributions to both the forums and the
          wiki are warmly encouraged - they are for you, and everyone is welcome there.

------------------------------------------------------------



  Date     :  20191128, Time     :  130710.369
  Time zero on CPU 1             :   0.412000000000000E+00  s.
  Internal wall clock time zero  :           344178430.369  s.

  FHI-aims created a unique identifier for this run for later identification
  aims_uuid : D1DB81CC-1D1C-4EF9-AC65-8251EEF692BE

  Using       80 parallel tasks.
  Task        0 on host t033 reporting.
  Task        1 on host t033 reporting.
  Task        2 on host t033 reporting.
  Task        3 on host t033 reporting.
  Task        4 on host t033 reporting.
  Task        5 on host t033 reporting.
  Task        6 on host t033 reporting.
  Task        7 on host t033 reporting.
  Task        8 on host t033 reporting.
  Task        9 on host t033 reporting.
  Task       10 on host t033 reporting.
  Task       11 on host t033 reporting.
  Task       12 on host t033 reporting.
  Task       13 on host t033 reporting.
  Task       14 on host t033 reporting.
  Task       15 on host t033 reporting.
  Task       16 on host t033 reporting.
  Task       17 on host t033 reporting.
  Task       18 on host t033 reporting.
  Task       19 on host t033 reporting.
  Task       20 on host t031 reporting.
  Task       21 on host t031 reporting.
  Task       22 on host t031 reporting.
  Task       23 on host t031 reporting.
  Task       24 on host t031 reporting.
  Task       25 on host t031 reporting.
  Task       26 on host t031 reporting.
  Task       27 on host t031 reporting.
  Task       28 on host t031 reporting.
  Task       29 on host t031 reporting.
  Task       30 on host t031 reporting.
  Task       31 on host t031 reporting.
  Task       32 on host t031 reporting.
  Task       33 on host t031 reporting.
  Task       34 on host t031 reporting.
  Task       35 on host t031 reporting.
  Task       36 on host t031 reporting.
  Task       37 on host t031 reporting.
  Task       38 on host t031 reporting.
  Task       39 on host t031 reporting.
  Task       40 on host t019 reporting.
  Task       41 on host t019 reporting.
  Task       42 on host t019 reporting.
  Task       43 on host t019 reporting.
  Task       44 on host t019 reporting.
  Task       45 on host t019 reporting.
  Task       46 on host t019 reporting.
  Task       47 on host t019 reporting.
  Task       48 on host t019 reporting.
  Task       49 on host t019 reporting.
  Task       50 on host t019 reporting.
  Task       51 on host t019 reporting.
  Task       52 on host t019 reporting.
  Task       53 on host t019 reporting.
  Task       54 on host t019 reporting.
  Task       55 on host t019 reporting.
  Task       56 on host t019 reporting.
  Task       57 on host t019 reporting.
  Task       58 on host t019 reporting.
  Task       59 on host t019 reporting.
  Task       60 on host t018 reporting.
  Task       61 on host t018 reporting.
  Task       62 on host t018 reporting.
  Task       63 on host t018 reporting.
  Task       64 on host t018 reporting.
  Task       65 on host t018 reporting.
  Task       66 on host t018 reporting.
  Task       67 on host t018 reporting.
  Task       68 on host t018 reporting.
  Task       69 on host t018 reporting.
  Task       70 on host t018 reporting.
  Task       71 on host t018 reporting.
  Task       72 on host t018 reporting.
  Task       73 on host t018 reporting.
  Task       74 on host t018 reporting.
  Task       75 on host t018 reporting.
  Task       76 on host t018 reporting.
  Task       77 on host t018 reporting.
  Task       78 on host t018 reporting.
  Task       79 on host t018 reporting.

  Performing system and environment tests:
  | Environment variable OMP_NUM_THREADS correctly set to 1.
  | Stacksize not measured: no C compiler
  | Checking for scalapack...
  | Testing pdtran()...
  | All pdtran() tests passed.

  Obtaining array dimensions for all initial allocations:
  
  -----------------------------------------------------------------------
  Parsing control.in (first pass over file, find array dimensions only).
  The contents of control.in will be repeated verbatim below
  unless switched off by setting 'verbatim_writeout .false.' .
  in the first line of control.in .
  -----------------------------------------------------------------------
  
  #===============================================================================
  # FHI-aims file: ./control.in
  # Created using the Atomic Simulation Environment (ASE)
  # Wed Nov 27 20:14:08 2019
  #
  # List of parameters used to initialize the calculator:
  #     species_dir : /chemsoft/FHI-aims/stable/species_defaults/tight
  #     relativistic : ('atomic_zora', 'scalar')
  #     adjust_scf : once 2
  #     spin : none
  #     xc : pbe
  #     k_grid : [18, 18, 1]
  #===============================================================================
  relativistic                       atomic_zora scalar
  adjust_scf                         once 2
  ### geometry optimisation section
  relax_geometry    bfgs    1E-2
  relax_unit_cell       fixed_angles
  spin                               none
  xc                                 pbe
  many_body_dispersion
  k_grid                             18 18 1
  #===============================================================================
  
  ################################################################################
  #
  #  FHI-aims code project
  # Volker Blum, Fritz Haber Institute Berlin, 2009
  #
  #  Suggested "tight" defaults for Ti atom (to be pasted into control.in file)
  #
  ################################################################################
    species        Ti
  #     global species definitions
      nucleus             22
      mass                47.867
  #
      l_hartree           6
  #
      cut_pot             4.0          2.0  1.0
      basis_dep_cutoff    1e-4
  #
      radial_base         48 7.0
      radial_multiplier   2
      angular_grids       specified
        division   0.3263   50
        division   0.7218  110
        division   1.0925  194
        division   1.3188  302
        division   1.4940  434
  #      division   1.6583  590
  #      division   1.8821  770
  #      division   2.0961  974
  #      division   3.3854 1202
  #      outer_grid  974
        outer_grid  434
  ################################################################################
  #
  #  Definition of "minimal" basis
  #
  ################################################################################
  #     valence basis states
      valence      4  s   2.
      valence      3  p   6.
      valence      3  d   2.
  #     ion occupancy
      ion_occ      4  s   1.
      ion_occ      3  p   6.
      ion_occ      3  d   1.
  ################################################################################
  #
  #  Suggested additional basis functions. For production calculations,
  #  uncomment them one after another (the most important basis functions are
  #  listed first).
  #
  #  Constructed for dimers: 1.6 A, 1.85 A, 2.5 A, 3.25 A, 4.25 A
  #
  ################################################################################
  #  "First tier" - improvements: -396.25 meV to -19.41 meV
       hydro 4 f 8
       hydro 3 d 2.7
       ionic 4 p auto
       hydro 5 g 11.6
       ionic 4 s auto
  #  "Second tier" - improvements: -16.30 meV to -2.03 meV
       hydro 3 d 4.4
       hydro 6 h 16
       hydro 4 f 9.4
       hydro 4 p 4.5
       hydro 1 s 0.5
  #  "Third tier" - improvements: -6.28 meV to -0.37 meV
  #     hydro 4 d 6.4
  #     hydro 4 f 10
  #     hydro 5 g 12
  #     hydro 2 p 1.7
  #     hydro 6 h 16.4
  #     hydro 4 s 3.8
  #  Further basis functions: -0.45 meV and smaller improvements
  #     hydro 3 d 8.8
  #     hydro 5 p 18
  #     hydro 4 f 22.4
  #     hydro 5 f 7.2  # -0.16 meV
  #     hydro 3 d 2.1  # -0.11 meV
  #     hydro 5 g 7.4  # -0.09 meV
  ################################################################################
  #
  #  FHI-aims code project
  # Volker Blum, Fritz Haber Institute Berlin, 2009
  #
  #  Suggested "tight" defaults for S atom (to be pasted into control.in file)
  #
  #  Revised Jan 04, 2011, following tests (SiC) done by Lydia Nemec:
  #     d and g functions of tier 2 now enabled by default.
  #
  ################################################################################
    species        S
  #     global species definitions
      nucleus             16
      mass                32.065
  #
      l_hartree           6
  #
      cut_pot             4.0          2.0  1.0
      basis_dep_cutoff    1e-4
  #
      radial_base         44 7.0
      radial_multiplier   2
      angular_grids       specified
        division   0.4665  110
        division   0.5810  194
        division   0.7139  302
        division   0.8274  434
  #      division   0.9105  590
  #      division   1.0975  770
  #      division   1.2028  974
  #      outer_grid  974
        outer_grid  434
  ################################################################################
  #
  #  Definition of "minimal" basis
  #
  ################################################################################
  #     valence basis states
      valence      3  s   2.
      valence      3  p   4.
  #     ion occupancy
      ion_occ      3  s   1.
      ion_occ      3  p   3.
  ################################################################################
  #
  #  Suggested additional basis functions. For production calculations,
  #  uncomment them one after another (the most important basis functions are
  #  listed first).
  #
  #  Constructed for dimers: 1.6 A, 1.9 A, 2.5 A, 3.25 A, 4.0 A
  #
  ################################################################################
  #  "First tier" - improvements: -652.81 meV to -45.53 meV
       ionic 3 d auto
       hydro 2 p 1.8
       hydro 4 f 7
       ionic 3 s auto
  #  "Second tier" - improvements: -30.20 meV to -1.74 meV
       hydro 4 d 6.2
       hydro 5 g 10.8
       hydro 4 p 4.9
       hydro 5 f 10
       hydro 1 s 0.8
  #  "Third tier" - improvements: -1.04 meV to -0.20 meV
  #     hydro 3 d 3.9
  #     hydro 3 d 2.7
  #     hydro 5 g 12
  #     hydro 4 p 10.4
  #     hydro 5 f 12.4
  #     hydro 2 s 1.9
  #  "Fourth tier" - improvements: -0.35 meV to -0.06 meV
  #     hydro 4 d 10.4
  #     hydro 4 p 7.2
  #     hydro 4 d 10
  #     hydro 5 g 19.2
  #     hydro 4 s 12
  #
  ################################################################################
  #
  # For methods that use the localized form of the "resolution of identity" for
  # the two-electron Coulomb operator (RI_method LVL), particularly Hartree-Fock and
  # hybrid density functional calculations, the highest accuracy can be obtained by
  # uncommenting the line beginning with "for_aux"  below, thus adding an extra g radial
  # function to the construction of the product basis set for the expansion.
  # See Ref. New J. Phys. 17, 093020 (2015) for more information, particularly Figs. 1 and 6.
  #
  ################################################################################
  #
  # for_aux hydro 5 g 6.0
  
  -----------------------------------------------------------------------
  Completed first pass over input file control.in .
  -----------------------------------------------------------------------
  
  
  -----------------------------------------------------------------------
  Parsing geometry.in (first pass over file, find array dimensions only).
  The contents of geometry.in will be repeated verbatim below
  unless switched off by setting 'verbatim_writeout .false.' .
  in the first line of geometry.in .
  -----------------------------------------------------------------------
  
  #=======================================================
  # FHI-aims file: ./geometry.in
  # Created using the Atomic Simulation Environment (ASE)
  # Wed Nov 27 20:14:08 2019
  #=======================================================
  lattice_vector 3.4285479799999998 0.0000000000000000 0.0000000000000000
  lattice_vector -1.7142739899999999 2.9692096499999998 0.0000000000000000
  lattice_vector 0.0000000000000000 0.0000000000000000 100.0000000000000000
  atom 0.0000000000000000 0.0000000000000000 -11.7889726800000005 Ti
  atom 1.7142739899999999 -0.9897365500000000 -4.4728659100000003 S
  atom -1.7142739899999999 0.9897365500000000 -13.2105931099999996 S
  atom 0.0000000000000000 0.0000000000000000 -5.8944863400000003 Ti
  atom 1.7142739899999999 -0.9897365500000000 -10.3673522499999997 S
  atom -1.7142739899999999 0.9897365500000000 -7.3161067700000002 S
  
  -----------------------------------------------------------------------
  Completed first pass over input file geometry.in .
  -----------------------------------------------------------------------
  

  Basic array size parameters:
  | Number of species                 :        2
  | Number of atoms                   :        6
  | Number of lattice vectors         :        3
  | Max. basis fn. angular momentum   :        5
  | Max. atomic/ionic basis occupied n:        4
  | Max. number of basis fn. types    :        3
  | Max. radial fns per species/type  :        8
  | Max. logarithmic grid size        :     1383
  | Max. radial integration grid size :       97
  | Max. angular integration grid size:      434
  | Max. angular grid division number :        8
  | Radial grid for Hartree potential :     1383
  | Number of spin channels           :        1

------------------------------------------------------------
          Reading file control.in.
------------------------------------------------------------
  Scalar relativistic treatment of kinetic energy: on-site free-atom approximation to ZORA.
  S.C.F. convergence parameters will be adjusted in iteration number     2 of the first full s.c.f. cycle only.
  Geometry relaxation: Modified BFGS - TRM (trust radius method, i.e., trusted quadratic extrapolation).
  Convergence accuracy for geometry relaxation: Maximum force <   0.100000E-01 eV/A.
  Spin treatment: No spin polarisation.
  XC: Using PBE gradient-corrected functionals.
  Using the default MBD implementation with analytical forces
  Found k-point grid:        18        18         1
 
  Reading configuration options for species Ti                  .
  | Found nuclear charge :  22.0000
  | Found atomic mass :    47.8670000000000      amu
  | Found l_max for Hartree potential  :   6
  | Found cutoff potl. onset [A], width [A], scale factor :    4.00000    2.00000    1.00000
  | Threshold for basis-dependent cutoff potential is   0.100000E-03
  | Found data for basic radial integration grid :    48 points, outermost radius =    7.000 A
  | Found multiplier for basic radial grid :   2
  | Found angular grid specification: user-specified.
  | Specified grid contains     6 separate shells.
  | Check grid settings after all constraints further below.
  | Found free-atom valence shell :  4 s   2.000
  | Found free-atom valence shell :  3 p   6.000
  | Found free-atom valence shell :  3 d   2.000
  | Found free-ion valence shell :  4 s   1.000
  | Found free-ion valence shell :  3 p   6.000
  | Found free-ion valence shell :  3 d   1.000
  | Found hydrogenic basis function :  4 f   8.000
  | Found hydrogenic basis function :  3 d   2.700
  | Found ionic basis function :  4 p , default cutoff radius.
  | Found hydrogenic basis function :  5 g  11.600
  | Found ionic basis function :  4 s , default cutoff radius.
  | Found hydrogenic basis function :  3 d   4.400
  | Found hydrogenic basis function :  6 h  16.000
  | Found hydrogenic basis function :  4 f   9.400
  | Found hydrogenic basis function :  4 p   4.500
  | Found hydrogenic basis function :  1 s   0.500
  Species Ti                  : Missing cutoff potential type.
  Defaulting to exp(1/x)/(1-x)^2 type cutoff potential.
  Species Ti: No 'logarithmic' tag. Using default grid for free atom:
  | Default logarithmic grid data [bohr] : 0.1000E-03 0.1000E+03 0.1012E+01
  | Will include ionic basis functions of  2.0-fold positive Ti                   ion.
  Species Ti: On-site basis accuracy parameter (for Gram-Schmidt orthonormalisation) not specified.
  Using default value basis_acc =  0.1000000E-03.
  Species Ti                  : Using default innermost maximum threshold i_radial=  2 for radial functions.
  Species Ti                  : Default cutoff onset for free atom density etc. : 0.40000000E+01 AA.
  Species Ti                  : Basic radial grid will be enhanced according to radial_multiplier =   2, to contain    97 grid points.
 
  Reading configuration options for species S                   .
  | Found nuclear charge :  16.0000
  | Found atomic mass :    32.0650000000000      amu
  | Found l_max for Hartree potential  :   6
  | Found cutoff potl. onset [A], width [A], scale factor :    4.00000    2.00000    1.00000
  | Threshold for basis-dependent cutoff potential is   0.100000E-03
  | Found data for basic radial integration grid :    44 points, outermost radius =    7.000 A
  | Found multiplier for basic radial grid :   2
  | Found angular grid specification: user-specified.
  | Specified grid contains     5 separate shells.
  | Check grid settings after all constraints further below.
  | Found free-atom valence shell :  3 s   2.000
  | Found free-atom valence shell :  3 p   4.000
  | Found free-ion valence shell :  3 s   1.000
  | Found free-ion valence shell :  3 p   3.000
  | Found ionic basis function :  3 d , default cutoff radius.
  | Found hydrogenic basis function :  2 p   1.800
  | Found hydrogenic basis function :  4 f   7.000
  | Found ionic basis function :  3 s , default cutoff radius.
  | Found hydrogenic basis function :  4 d   6.200
  | Found hydrogenic basis function :  5 g  10.800
  | Found hydrogenic basis function :  4 p   4.900
  | Found hydrogenic basis function :  5 f  10.000
  | Found hydrogenic basis function :  1 s   0.800
  Species S                   : Missing cutoff potential type.
  Defaulting to exp(1/x)/(1-x)^2 type cutoff potential.
  Species S : No 'logarithmic' tag. Using default grid for free atom:
  | Default logarithmic grid data [bohr] : 0.1000E-03 0.1000E+03 0.1012E+01
  | Will include ionic basis functions of  2.0-fold positive S                    ion.
  Species S : On-site basis accuracy parameter (for Gram-Schmidt orthonormalisation) not specified.
  Using default value basis_acc =  0.1000000E-03.
  Species S                   : Using default innermost maximum threshold i_radial=  2 for radial functions.
  Species S                   : Default cutoff onset for free atom density etc. : 0.40000000E+01 AA.
  Species S                   : Basic radial grid will be enhanced according to radial_multiplier =   2, to contain    89 grid points.
  | MBD: Using the same k-grid sampling as DFT
 
  Finished reading input file 'control.in'. Consistency checks are next.
 
  MPI_IN_PLACE appears to work with this MPI implementation.
  | Keeping use_mpi_in_place .true. (see manual).
  Target number of points in a grid batch is not set. Defaulting to  100
  Method for grid partitioning is not set. Defaulting to parallel hash+maxmin partitioning.
  Batch size limit is not set. Defaulting to    200
  By default, will store active basis functions for each batch.
  If in need of memory, prune_basis_once .false. can be used to disable this option.
  communication_type for Hartree potential was not specified.
  Defaulting to calc_hartree .
  Defaulting to Pulay charge density mixer.
  Pulay mixer: Number of relevant iterations not set.
  Defaulting to    8 iterations.
  Pulay mixer: Number of initial linear mixing iterations not set.
  Defaulting to    0 iterations.
  Work space size for distributed Hartree potential not set.
  Defaulting to   0.200000E+03 MB.
  Mixing parameter for charge density mixing has not been set.
  Using default: charge_mix_param =     0.0500.
  The mixing parameter will be adjusted in iteration number     2 of the first full s.c.f. cycle only.
  Algorithm-dependent basis array size parameters:
  | n_max_pulay                         :        8
 * Notice: The s.c.f. convergence criterion sc_accuracy_rho was not provided.
 * We used to stop in this case, and ask the user to provide reasonable
 * scf convergence criteria. However, this led some users to employ criteria
 * that led to extremely long run times, e.g., for simple relaxation.
 * We now preset a default value for sc_accuracy_rho if it is not set.
 * You may still wish to check if this setting is too tight or too loose for your needs.
 * Based on n_atoms, FHI-aims chose sc_accuracy_rho =  0.100000E-05 .
  Maximum number of self-consistency iterations not provided.
  Presetting  1000 iterations.
  Presetting      1001 iterations before the initial mixing cycle
  is restarted anyway using the sc_init_iter criterion / keyword.
  Presetting a factor      1.000 between actual scf density residual
  and density convergence criterion sc_accuracy_rho below which sc_init_iter
  takes no effect.
 * No s.c.f. convergence criteria (sc_accuracy_*) were provided in control.in.
 * The run will proceed with a reasonable default guess, but please check whether.
 * the s.c.f. cycles seem to take too much or too little time.
  No maximum number of relaxation steps, defaulting to     1000
  Default initial Hessian is Lindh matrix (thres = 15.00) plus  0.200000E+01 eV/A^2 times unity.
  No maximum energy tolerance for TRM/BFGS moves, defaulting to   0.200000E-03
  No harmonic length scale. Defaulting to   0.250000E-01 A.
  No trust radius initializer. Defaulting to   0.200000E+00 A.
  Unit cell relaxation: Restricted relaxation with fixed angles between lattice vectors.
  Unit cell relaxation: Analytical stress will be used.
  Analytical stress will be computed.
  Analytical stress calculation: Only the upper triangle is calculated.
                                 Final output is symmetrized.
  Analytical stress calculation: scf convergence accuracy of stress not set.
                                 Analytical stress self-consistency will not be checked explicitly.
                                 Be sure to set other criteria like sc_accuracy_rho tight enough.
  Force calculation: scf convergence accuracy of forces not set.
  Defaulting to 'sc_accuracy_forces not_checked'.
  Handling of forces: Unphysical translation and rotation will be removed from forces.
  No accuracy limit for integral partition fn. given. Defaulting to  0.1000E-14.
  No threshold value for u(r) in integrations given. Defaulting to  0.1000E-05.
  No occupation type (smearing scheme) given. Defaulting to Gaussian broadening, width =  0.1000E-01 eV.
  The width will be adjusted in iteration number     2 of the first full s.c.f. cycle only.
  S.C.F. convergence parameters will be adjusted in iteration number     2 of the first full s.c.f. cycle only.
  No accuracy for occupation numbers given. Defaulting to  0.1000E-12.
  No threshold value for occupation numbers given. Defaulting to  0.0000E+00.
  No accuracy for fermi level given. Defaulting to  0.1000E-19.
  Maximum # of iterations to find E_F not set. Defaulting to  200.
  Preferred method for the eigenvalue solver ('KS_method') not specified in 'control.in'.
  Defaulting to serial version, 'lapack_fast', since more k-points than CPUs available.
  Will not use alltoall communication since running on < 1024 CPUs.
  Threshold for basis singularities not set.
  Default threshold for basis singularities:  0.1000E-04
  partition_type (choice of integration weights) for integrals was not specified.
  | Using a version of the partition function of Stratmann and coworkers ('stratmann_smoother').
  | At each grid point, the set of atoms used to build the partition table is smoothly restricted to
  | only those atoms whose free-atom density would be non-zero at that grid point.
  Partitioning for Hartree potential was not defined. Using partition_type for integrals.
  | Adjusted default value of keyword multip_moments_threshold to:       0.10000000E-11
  | This value may affect high angular momentum components of the Hartree potential in periodic systems.
  Angular momentum expansion for Kerker preconditioner not set explicitly.
  | Using default value of   0
  No explicit requirement for turning off preconditioner.
  | By default, it will be turned off when the charge convergence reaches
  | sc_accuracy_rho  =   0.100000E-05
  No special mixing parameter while Kerker preconditioner is on.
  Using default: charge_mix_param =     0.0500.
  No q(lm)/r^(l+1) cutoff set for long-range Hartree potential.
  | Using default value of  0.100000E-09 .
  | Verify using the multipole_threshold keyword.
  Defaulting to new monopole extrapolation.
  Density update method: automatic selection selected.
  Using density matrix based charge density update.
  Using density matrix based charge density update.
  Using packed matrix style: index .
  Geometry relaxation: A file "geometry.in.next_step" is written out by default after each step.
  | This file contains the geometry of the current relaxation step as well as
  | the current Hessian matrix needed to restart the relaxation algorithm.
  | If you do not want part or all of this information, use the keywords
  | "write_restart_geometry" or "hessian_to_restart_geometry" to switch the output off.
  Defaulting to use time-reversal symmetry for k-point grid.
------------------------------------------------------------


------------------------------------------------------------
          Reading geometry description geometry.in.
------------------------------------------------------------
  Input structure read successfully.
  The structure contains        6 atoms,  and a total of        108.000 electrons.

  Input geometry:
  | Unit cell:
  |        3.42854798        0.00000000        0.00000000
  |       -1.71427399        2.96920965        0.00000000
  |        0.00000000        0.00000000      100.00000000
  | Atomic structure:
  |       Atom                x [A]            y [A]            z [A]
  |    1: Species Ti            0.00000000        0.00000000      -11.78897268
  |    2: Species S             1.71427399       -0.98973655       -4.47286591
  |    3: Species S            -1.71427399        0.98973655      -13.21059311
  |    4: Species Ti            0.00000000        0.00000000       -5.89448634
  |    5: Species S             1.71427399       -0.98973655      -10.36735225
  |    6: Species S            -1.71427399        0.98973655       -7.31610677

  Lattice parameters for 3D lattice (in Angstroms) :     3.428548    3.428548  100.000000
  Angle(s) between unit vectors (in degrees)      :    90.000000   90.000000  120.000000

  |

  | The smallest distance between any two atoms is         2.43707169 AA.
  |
  | The first atom of this pair is atom number                      1 .
  | The second atom of this pair is atom number                     3 .
  | Wigner-Seitz cell of the first atom image           0     0     0 .
  | (The Wigner-Seitz cell of the second atom is 0 0 0  by definition.)

  Quantities derived from the lattice vectors:
  | Reciprocal lattice vector 1:  1.832608  1.058057  0.000000
  | Reciprocal lattice vector 2:  0.000000  2.116114  0.000000
  | Reciprocal lattice vector 3:  0.000000  0.000000  0.062832
  | Unit cell volume                               :   0.101801E+04  A^3

  Range separation radius for Ewald summation (hartree_convergence_parameter):      5.00000000 bohr.

  Fractional coordinates:
                         L1                L2                L3
       atom_frac         0.00000000        0.00000000       -0.11788973  Ti
       atom_frac         0.33333333       -0.33333333       -0.04472866  S
       atom_frac        -0.33333333        0.33333333       -0.13210593  S
       atom_frac         0.00000000        0.00000000       -0.05894486  Ti
       atom_frac         0.33333333       -0.33333333       -0.10367352  S
       atom_frac        -0.33333333        0.33333333       -0.07316107  S

  Number of empty states per atom not set in control.in - providing a guess from actual geometry.
  | Total number of empty states used during s.c.f. cycle:       23
  If you use a very high smearing, use empty_states (per atom!) in control.in to increase this value.

  Structure-dependent array size parameters: 
  | Maximum number of distinct radial functions  :       31
  | Maximum number of basis functions            :      334
  | Number of Kohn-Sham states (occupied + empty):       77
------------------------------------------------------------

------------------------------------------------------------
          Preparing all fixed parts of the calculation.
------------------------------------------------------------
  Determining machine precision:
    2.225073858507201E-308
  Setting up grids for atomic and cluster calculations.

  Creating wave function, potential, and density for free atoms.

  Species: Ti

  List of occupied orbitals and eigenvalues:
    n    l              occ      energy [Ha]    energy [eV]
    1    0           2.0000      -179.971977     -4897.2867
    2    0           2.0000       -19.740069      -537.1546
    3    0           2.0000        -2.295181       -62.4550
    4    0           2.0000        -0.158903        -4.3240
    2    1           6.0000       -16.329721      -444.3543
    3    1           6.0000        -1.421430       -38.6791
    3    2           2.0000        -0.150533        -4.0962


  Species: S

  List of occupied orbitals and eigenvalues:
    n    l              occ      energy [Ha]    energy [eV]
    1    0           2.0000       -88.680731     -2413.1255
    2    0           2.0000        -7.781719      -211.7513
    3    0           2.0000        -0.633662       -17.2428
    2    1           6.0000        -5.751976      -156.5192
    3    1           4.0000        -0.257086        -6.9957

  Creating fixed part of basis set: Ionic, confined, hydrogenic.
 
  Ti                   ion:

  List of free ionic orbitals and eigenvalues:
    n    l      energy [Ha]    energy [eV]
    1    0      -180.819616     -4920.3521
    2    0       -20.608761      -560.7929
    3    0        -3.115729       -84.7833
    4    0        -0.697188       -18.9715
    2    1       -17.196209      -467.9327
    3    1        -2.231296       -60.7167
    3    2        -0.911363       -24.7995


  List of ionic basis orbitals and eigenvalues:
    n    l      energy [Ha]    energy [eV]    outer radius [A]
    4    1        -0.519390       -14.1333       5.449321
    4    0        -0.697156       -18.9706       5.383109

 
  Ti                   hydrogenic:
 
  List of hydrogenic basis orbitals: 
    n    l      effective z      eigenvalue [eV]  inner max. [A]     outer max. [A]     outer radius [A]   
    4    3         8.000000       -54.4226           1.059019           1.059019           4.648601
    3    2         2.700000       -10.9576           1.748166           1.748166           5.449321
    5    4        11.600000       -73.2312           1.139618           1.139618           4.536321
    3    2         4.400000       -29.2670           1.085231           1.085231           5.189260
    6    5        16.000000       -96.7515           1.196730           1.196730           4.426753
    4    3         9.400000       -75.1373           0.903407           0.903407           4.113673
    4    1         4.500000       -16.9509           0.331532           2.714661           5.516348
    1    0         0.500000        -3.3476           1.046151           1.046151           5.449321
 
 
  S                    ion:

  List of free ionic orbitals and eigenvalues:
    n    l      energy [Ha]    energy [eV]
    1    0       -89.703778     -2440.9640
    2    0        -8.775428      -238.7916
    3    0        -1.470343       -40.0101
    2    1        -6.747660      -183.6132
    3    1        -1.048627       -28.5346


  List of ionic basis orbitals and eigenvalues:
    n    l      energy [Ha]    energy [eV]    outer radius [A]
    3    2        -0.495605       -13.4861       5.386362
    3    0        -1.470336       -40.0099       3.967934

 
  S                    hydrogenic:
 
  List of hydrogenic basis orbitals: 
    n    l      effective z      eigenvalue [eV]  inner max. [A]     outer max. [A]     outer radius [A]   
    2    1         1.800000       -11.0118           1.168531           1.168531           5.452614
    4    3         7.000000       -41.6672           1.212182           1.212182           5.066981
    4    2         6.200000       -32.6848           0.582121           1.814567           5.386362
    5    4        10.800000       -63.4785           1.227092           1.227092           4.766538
    4    1         4.900000       -20.2928           0.304525           2.524192           5.452614
    5    3        10.000000       -54.4226           0.641929           1.727969           5.320915
    1    0         0.800000        -8.7059           0.657818           0.657818           5.386362
 

  Adding cutoff potential to free-atom effective potential.
  Creating atomic-like basis functions for current effective potential.

  Species Ti                  :

  List of atomic basis orbitals and eigenvalues:
    n    l      energy [Ha]    energy [eV]    outer radius [A]
    1    0      -179.971977     -4897.2867       0.490254
    2    0       -19.740069      -537.1546       1.491292
    3    0        -2.295181       -62.4550       4.215492
    4    0        -0.158903        -4.3240       5.449321
    2    1       -16.329721      -444.3543       1.585290
    3    1        -1.421430       -38.6791       4.822253
    3    2        -0.150533        -4.0962       5.383109


  Species S                   :

  List of atomic basis orbitals and eigenvalues:
    n    l      energy [Ha]    energy [eV]    outer radius [A]
    1    0       -88.680731     -2413.1255       0.682391
    2    0        -7.781719      -211.7513       2.289014
    3    0        -0.633662       -17.2428       5.256262
    2    1        -5.751976      -156.5192       2.555240
    3    1        -0.257086        -6.9957       5.386362

  Assembling full basis from fixed parts.
  | Species Ti :   atomic orbital   1 s accepted.
  | Species Ti :   atomic orbital   2 s accepted.
  | Species Ti :   atomic orbital   3 s accepted.
  | Species Ti :    ionic orbital   4 s accepted.
  | Species Ti :   atomic orbital   4 s accepted.
  | Species Ti :    hydro orbital   1 s accepted.
  | Species Ti :   atomic orbital   2 p accepted.
  | Species Ti :   atomic orbital   3 p accepted.
  | Species Ti :    ionic orbital   4 p accepted.
  | Species Ti :    hydro orbital   4 p accepted.
  | Species Ti :    hydro orbital   3 d accepted.
  | Species Ti :   atomic orbital   3 d accepted.
  | Species Ti :    hydro orbital   3 d accepted.
  | Species Ti :    hydro orbital   4 f accepted.
  | Species Ti :    hydro orbital   4 f accepted.
  | Species Ti :    hydro orbital   5 g accepted.
  | Species Ti :    hydro orbital   6 h accepted.
  | Species S :   atomic orbital   1 s accepted.
  | Species S :   atomic orbital   2 s accepted.
  | Species S :    ionic orbital   3 s accepted.
  | Species S :   atomic orbital   3 s accepted.
  | Species S :    hydro orbital   1 s accepted.
  | Species S :   atomic orbital   2 p accepted.
  | Species S :   atomic orbital   3 p accepted.
  | Species S :    hydro orbital   2 p accepted.
  | Species S :    hydro orbital   4 p accepted.
  | Species S :    ionic orbital   3 d accepted.
  | Species S :    hydro orbital   4 d accepted.
  | Species S :    hydro orbital   4 f accepted.
  | Species S :    hydro orbital   5 f accepted.
  | Species S :    hydro orbital   5 g accepted.
 
  Basis size parameters after reduction:
  | Total number of radial functions:       31
  | Total number of basis functions :      334
 
  Per-task memory consumption for arrays in subroutine allocate_ext:
  |          10.984888MB.
  Testing on-site integration grid accuracy.
  |  Species  Function  <phi|h_atom|phi> (log., in eV)  <phi|h_atom|phi> (rad., in eV)
           1        1              -4897.2866775048              -4897.2865281705
           1        2               -537.1546057165               -537.1546030101
           1        3                -62.4550461141                -62.4550457173
           1        4                 -3.5044071906                 -3.5043997442
           1        5                  4.8243353859                  4.8253021531
           1        6                 35.3123239829                 35.3145819951
           1        7               -444.3543098525               -444.3543092932
           1        8                -38.6790689451                -38.6790687353
           1        9                 -0.0282770068                 -0.0282312865
           1       10                  7.9187925361                  7.9198036365
           1       11                  2.0800416567                  2.0800407648
           1       12                 14.9025937188                 14.9026146431
           1       13                 11.6335272978                 11.6344041266
           1       14                 36.9011578332                 36.9011578740
           1       15                 46.0709040601                 46.0709082219
           1       16                 51.3154532434                 51.3154529981
           1       17                 77.3340423430                 77.3340424500
           2       18              -2413.1254568977              -2413.1254096663
           2       19               -211.7513411281               -211.7513404762
           2       20                -16.9725280787                -16.9725279206
           2       21                  7.6024436204                  7.6024549059
           2       22                 48.5754986812                 48.5751292874
           2       23               -156.5192206929               -156.5192205451
           2       24                 -6.9959757887                 -6.9959777655
           2       25                  6.8896462808                  6.8895564741
           2       26                 27.2255287135                 27.2252601701
           2       27                  6.0214250550                  6.0214220200
           2       28                 19.6206468977                 19.6206494558
           2       29                 24.7008710786                 24.7008710738
           2       30                 58.2239314521                 58.2239319465
           2       31                 47.5292252001                 47.5292260486

  Preparing densities etc. for the partition functions (integrals / Hartree potential).

  Preparations completed.
  max(cpu_time)          :      0.376 s.
  Wall clock time (cpu1) :      0.374 s.
------------------------------------------------------------

------------------------------------------------------------
          Begin self-consistency loop: Initialization.

          Date     :  20191128, Time     :  130710.818
------------------------------------------------------------

  Initializing index lists of integration centers etc. from given atomic structure:
  Mapping all atomic coordinates to central unit cell.

  Initializing the k-points
          Using symmetry for reducing the k-points
  | k-points reduced from:      324 to      164
  | Number of k-points                             :       164
  The eigenvectors in the calculations are COMPLEX.
  | K-points in task   0:         2
  | K-points in task   1:         3
  | K-points in task   2:         3
  | K-points in task   3:         3
  | K-points in task   4:         3
  | K-points in task   5:         2
  | K-points in task   6:         2
  | K-points in task   7:         2
  | K-points in task   8:         2
  | K-points in task   9:         2
  | K-points in task  10:         2
  | K-points in task  11:         2
  | K-points in task  12:         2
  | K-points in task  13:         2
  | K-points in task  14:         2
  | K-points in task  15:         2
  | K-points in task  16:         2
  | K-points in task  17:         2
  | K-points in task  18:         2
  | K-points in task  19:         2
  | K-points in task  20:         2
  | K-points in task  21:         2
  | K-points in task  22:         2
  | K-points in task  23:         2
  | K-points in task  24:         2
  | K-points in task  25:         2
  | K-points in task  26:         2
  | K-points in task  27:         2
  | K-points in task  28:         2
  | K-points in task  29:         2
  | K-points in task  30:         2
  | K-points in task  31:         2
  | K-points in task  32:         2
  | K-points in task  33:         2
  | K-points in task  34:         2
  | K-points in task  35:         2
  | K-points in task  36:         2
  | K-points in task  37:         2
  | K-points in task  38:         2
  | K-points in task  39:         2
  | K-points in task  40:         2
  | K-points in task  41:         2
  | K-points in task  42:         2
  | K-points in task  43:         2
  | K-points in task  44:         2
  | K-points in task  45:         2
  | K-points in task  46:         2
  | K-points in task  47:         2
  | K-points in task  48:         2
  | K-points in task  49:         2
  | K-points in task  50:         2
  | K-points in task  51:         2
  | K-points in task  52:         2
  | K-points in task  53:         2
  | K-points in task  54:         2
  | K-points in task  55:         2
  | K-points in task  56:         2
  | K-points in task  57:         2
  | K-points in task  58:         2
  | K-points in task  59:         2
  | K-points in task  60:         2
  | K-points in task  61:         2
  | K-points in task  62:         2
  | K-points in task  63:         2
  | K-points in task  64:         2
  | K-points in task  65:         2
  | K-points in task  66:         2
  | K-points in task  67:         2
  | K-points in task  68:         2
  | K-points in task  69:         2
  | K-points in task  70:         2
  | K-points in task  71:         2
  | K-points in task  72:         2
  | K-points in task  73:         2
  | K-points in task  74:         2
  | K-points in task  75:         2
  | K-points in task  76:         2
  | K-points in task  77:         2
  | K-points in task  78:         2
  | K-points in task  79:         2
  | Number of basis functions in the Hamiltonian integrals :      5434
  | Number of basis functions in a single unit cell        :       334
  | Number of centers in hartree potential         :       686
  | Number of centers in hartree multipole         :       362
  | Number of centers in electron density summation:       286
  | Number of centers in basis integrals           :       294
  | Number of centers in integrals                 :       122
  | Number of centers in hamiltonian               :       294
  | Consuming        153 KiB for k_phase.
  | Number of super-cells (origin) [n_cells]                     :         675
  | Number of super-cells (after PM_index) [n_cells]             :          60
  | Number of super-cells in hamiltonian [n_cells_in_hamiltonian]:          60
  | Size of matrix packed + index [n_hamiltonian_matrix_size] :     1387906
  Initializing relaxation algorithms.
  Partitioning the integration grid into batches with parallel hashing+maxmin method.
  | Number of batches:     1545
  | Maximal batch size:     197
  | Minimal batch size:       7
  | Average batch size:      89.675
  | Standard deviation of batch sizes:      27.264

  Integration load balanced across    80 MPI tasks.
  Work distribution over tasks is as follows:
  Task     0 has       1718 integration points.
  Task     1 has       1713 integration points.
  Task     2 has       1703 integration points.
  Task     3 has       1716 integration points.
  Task     4 has       1713 integration points.
  Task     5 has       1720 integration points.
  Task     6 has       1749 integration points.
  Task     7 has       1707 integration points.
  Task     8 has       1716 integration points.
  Task     9 has       1707 integration points.
  Task    10 has       1715 integration points.
  Task    11 has       1709 integration points.
  Task    12 has       1777 integration points.
  Task    13 has       1772 integration points.
  Task    14 has       1775 integration points.
  Task    15 has       1716 integration points.
  Task    16 has       1719 integration points.
  Task    17 has       1765 integration points.
  Task    18 has       1709 integration points.
  Task    19 has       1708 integration points.
  Task    20 has       1738 integration points.
  Task    21 has       1783 integration points.
  Task    22 has       1696 integration points.
  Task    23 has       1712 integration points.
  Task    24 has       1768 integration points.
  Task    25 has       1714 integration points.
  Task    26 has       1699 integration points.
  Task    27 has       1710 integration points.
  Task    28 has       1710 integration points.
  Task    29 has       1706 integration points.
  Task    30 has       1712 integration points.
  Task    31 has       1702 integration points.
  Task    32 has       1711 integration points.
  Task    33 has       1718 integration points.
  Task    34 has       1711 integration points.
  Task    35 has       1714 integration points.
  Task    36 has       1705 integration points.
  Task    37 has       1705 integration points.
  Task    38 has       1699 integration points.
  Task    39 has       1709 integration points.
  Task    40 has       1717 integration points.
  Task    41 has       1706 integration points.
  Task    42 has       1709 integration points.
  Task    43 has       1768 integration points.
  Task    44 has       1765 integration points.
  Task    45 has       1770 integration points.
  Task    46 has       1841 integration points.
  Task    47 has       1767 integration points.
  Task    48 has       1717 integration points.
  Task    49 has       1712 integration points.
  Task    50 has       1794 integration points.
  Task    51 has       1786 integration points.
  Task    52 has       1769 integration points.
  Task    53 has       1716 integration points.
  Task    54 has       1739 integration points.
  Task    55 has       1713 integration points.
  Task    56 has       1703 integration points.
  Task    57 has       1710 integration points.
  Task    58 has       1772 integration points.
  Task    59 has       1793 integration points.
  Task    60 has       1702 integration points.
  Task    61 has       1771 integration points.
  Task    62 has       1704 integration points.
  Task    63 has       1708 integration points.
  Task    64 has       1856 integration points.
  Task    65 has       1768 integration points.
  Task    66 has       1707 integration points.
  Task    67 has       1768 integration points.
  Task    68 has       1735 integration points.
  Task    69 has       1698 integration points.
  Task    70 has       1714 integration points.
  Task    71 has       1713 integration points.
  Task    72 has       1767 integration points.
  Task    73 has       1705 integration points.
  Task    74 has       1715 integration points.
  Task    75 has       1745 integration points.
  Task    76 has       1708 integration points.
  Task    77 has       1774 integration points.
  Task    78 has       1697 integration points.
  Task    79 has       1777 integration points.
  Initializing partition tables, free-atom densities, potentials, etc. across the integration grid (initialize_grid_storage).
  | initialize_grid_storage: Actual outermost partition radius vs. multipole_radius_free
  | (-- VB: in principle, multipole_radius_free should be larger, hence this output)
  | Species        1: Confinement radius =              6.000000000000000 AA, multipole_radius_free =              6.009195547060584 AA.
  | Species        1: outer_partition_radius set to              6.009195547060584 AA .
  | Species        2: Confinement radius =              6.000000000000000 AA, multipole_radius_free =              6.012827091137924 AA.
  | Species        2: outer_partition_radius set to              6.012827091137924 AA .
  | Original list of interatomic distances with         294 x        294 entries is created.
  | Net number of integration points:   138548
  | of which are non-zero points    :   111936
  | Numerical average free-atom electrostatic potential    :     -1.73046784 eV
  Renormalizing the initial density to the exact electron count on the 3D integration grid.
  | Initial density: Formal number of electrons (from input files) :     108.0000000000
  | Integrated number of electrons on 3D grid     :     107.9997440672
  | Charge integration error                      :      -0.0002559328
  | Normalization factor for density and gradient :       1.0000023698
  Obtaining max. number of non-zero basis functions in each batch (get_n_compute_maxes).
  | Maximal number of non-zero basis functions:     1884 in task     0
  | Maximal number of non-zero basis functions:     1921 in task     1
  | Maximal number of non-zero basis functions:     1845 in task     2
  | Maximal number of non-zero basis functions:     1942 in task     3
  | Maximal number of non-zero basis functions:     1953 in task     4
  | Maximal number of non-zero basis functions:     2133 in task     5
  | Maximal number of non-zero basis functions:     2032 in task     6
  | Maximal number of non-zero basis functions:     2062 in task     7
  | Maximal number of non-zero basis functions:     1994 in task     8
  | Maximal number of non-zero basis functions:     1938 in task     9
  | Maximal number of non-zero basis functions:     2039 in task    10
  | Maximal number of non-zero basis functions:     1823 in task    11
  | Maximal number of non-zero basis functions:     1928 in task    12
  | Maximal number of non-zero basis functions:     2060 in task    13
  | Maximal number of non-zero basis functions:     2146 in task    14
  | Maximal number of non-zero basis functions:     1864 in task    15
  | Maximal number of non-zero basis functions:     1999 in task    16
  | Maximal number of non-zero basis functions:     2132 in task    17
  | Maximal number of non-zero basis functions:     2033 in task    18
  | Maximal number of non-zero basis functions:     1982 in task    19
  | Maximal number of non-zero basis functions:     1914 in task    20
  | Maximal number of non-zero basis functions:     2044 in task    21
  | Maximal number of non-zero basis functions:     2101 in task    22
  | Maximal number of non-zero basis functions:     1989 in task    23
  | Maximal number of non-zero basis functions:     2090 in task    24
  | Maximal number of non-zero basis functions:     1951 in task    25
  | Maximal number of non-zero basis functions:     1898 in task    26
  | Maximal number of non-zero basis functions:     1923 in task    27
  | Maximal number of non-zero basis functions:     1949 in task    28
  | Maximal number of non-zero basis functions:     2066 in task    29
  | Maximal number of non-zero basis functions:     2005 in task    30
  | Maximal number of non-zero basis functions:     2012 in task    31
  | Maximal number of non-zero basis functions:     1999 in task    32
  | Maximal number of non-zero basis functions:     2049 in task    33
  | Maximal number of non-zero basis functions:     1969 in task    34
  | Maximal number of non-zero basis functions:     1925 in task    35
  | Maximal number of non-zero basis functions:     1945 in task    36
  | Maximal number of non-zero basis functions:     1986 in task    37
  | Maximal number of non-zero basis functions:     2044 in task    38
  | Maximal number of non-zero basis functions:     2145 in task    39
  | Maximal number of non-zero basis functions:     1965 in task    40
  | Maximal number of non-zero basis functions:     2050 in task    41
  | Maximal number of non-zero basis functions:     1852 in task    42
  | Maximal number of non-zero basis functions:     1955 in task    43
  | Maximal number of non-zero basis functions:     2030 in task    44
  | Maximal number of non-zero basis functions:     2010 in task    45
  | Maximal number of non-zero basis functions:     1978 in task    46
  | Maximal number of non-zero basis functions:     2051 in task    47
  | Maximal number of non-zero basis functions:     2000 in task    48
  | Maximal number of non-zero basis functions:     1983 in task    49
  | Maximal number of non-zero basis functions:     1965 in task    50
  | Maximal number of non-zero basis functions:     2020 in task    51
  | Maximal number of non-zero basis functions:     2005 in task    52
  | Maximal number of non-zero basis functions:     2078 in task    53
  | Maximal number of non-zero basis functions:     1993 in task    54
  | Maximal number of non-zero basis functions:     1932 in task    55
  | Maximal number of non-zero basis functions:     1940 in task    56
  | Maximal number of non-zero basis functions:     2093 in task    57
  | Maximal number of non-zero basis functions:     2008 in task    58
  | Maximal number of non-zero basis functions:     1770 in task    59
  | Maximal number of non-zero basis functions:     2011 in task    60
  | Maximal number of non-zero basis functions:     2018 in task    61
  | Maximal number of non-zero basis functions:     2040 in task    62
  | Maximal number of non-zero basis functions:     2036 in task    63
  | Maximal number of non-zero basis functions:     2172 in task    64
  | Maximal number of non-zero basis functions:     1964 in task    65
  | Maximal number of non-zero basis functions:     2108 in task    66
  | Maximal number of non-zero basis functions:     1982 in task    67
  | Maximal number of non-zero basis functions:     2181 in task    68
  | Maximal number of non-zero basis functions:     2125 in task    69
  | Maximal number of non-zero basis functions:     2163 in task    70
  | Maximal number of non-zero basis functions:     1920 in task    71
  | Maximal number of non-zero basis functions:     2071 in task    72
  | Maximal number of non-zero basis functions:     1964 in task    73
  | Maximal number of non-zero basis functions:     2031 in task    74
  | Maximal number of non-zero basis functions:     2000 in task    75
  | Maximal number of non-zero basis functions:     2119 in task    76
  | Maximal number of non-zero basis functions:     1926 in task    77
  | Maximal number of non-zero basis functions:     2046 in task    78
  | Maximal number of non-zero basis functions:     2098 in task    79
  Allocating        0.823 MB for KS_eigenvector_complex
  Integrating Hamiltonian matrix: batch-based integration.
  Time summed over all CPUs for integration: real work       53.427 s, elapsed       59.979 s
  Integrating overlap matrix.
  Time summed over all CPUs for integration: real work       40.609 s, elapsed       46.221 s
  Decreasing sparse matrix size:
   Tolerance:  9.999999824516700E-014
   Hamiltonian matrix
  | Array has  1158584 nonzero elements out of  1387906 elements
  | Sparsity factor is 0.165
   Overlap matrix
  | Array has  1080608 nonzero elements out of  1387906 elements
  | Sparsity factor is 0.221
  New size of hamiltonian matrix:     1163093

  Updating Kohn-Sham eigenvalues and eigenvectors using ELSI and the ELPA eigensolver.
  Overlap matrix is nonsingular
  | Lowest eigenvalue of overlap  :  0.54E-04
  | Highest eigenvalue of overlap :  0.89E+01
  Finished singularity check of overlap matrix
  | Time :     0.020 s
  Finished Cholesky decomposition
  | Time :     0.005 s
  Finished transformation to standard eigenproblem
  | Time :     0.009 s
  Starting LAPACK eigensolver
  Finished solving standard eigenproblem
  | Time :     0.020 s
  Finished back-transformation of eigenvectors
  | Time :     0.002 s

  Obtaining occupation numbers and chemical potential using ELSI.
  | Chemical potential (Fermi level):    -6.35303718eV
  Writing Kohn-Sham eigenvalues.
  K-point:       1 at    0.000000    0.000000    0.000000 (in units of recip. lattice)

  State    Occupation    Eigenvalue [Ha]    Eigenvalue [eV]
      1       2.00000        -179.985964        -4897.66728
      2       2.00000        -179.985964        -4897.66728
      3       2.00000         -88.716809        -2414.10720
      4       2.00000         -88.716809        -2414.10720
      5       2.00000         -88.716753        -2414.10568
      6       2.00000         -88.716753        -2414.10568
      7       2.00000         -19.755031         -537.56174
      8       2.00000         -19.755031         -537.56174
      9       2.00000         -16.344554         -444.75795
     10       2.00000         -16.344554         -444.75795
     11       2.00000         -16.344554         -444.75795
     12       2.00000         -16.344554         -444.75795
     13       2.00000         -16.344440         -444.75483
     14       2.00000         -16.344440         -444.75483
     15       2.00000          -7.820837         -212.81581
     16       2.00000          -7.820837         -212.81581
     17       2.00000          -7.820767         -212.81389
     18       2.00000          -7.820767         -212.81389
     19       2.00000          -5.790740         -157.57406
     20       2.00000          -5.790740         -157.57406
     21       2.00000          -5.790740         -157.57406
     22       2.00000          -5.790740         -157.57406
     23       2.00000          -5.790735         -157.57392
     24       2.00000          -5.790735         -157.57392
     25       2.00000          -5.790675         -157.57227
     26       2.00000          -5.790675         -157.57227
     27       2.00000          -5.790675         -157.57227
     28       2.00000          -5.790675         -157.57227
     29       2.00000          -5.790659         -157.57186
     30       2.00000          -5.790659         -157.57186
     31       2.00000          -2.321733          -63.17756
     32       2.00000          -2.321733          -63.17756
     33       2.00000          -1.452137          -39.51466
     34       2.00000          -1.452135          -39.51461
     35       2.00000          -1.451087          -39.48609
     36       2.00000          -1.451087          -39.48609
     37       2.00000          -1.451087          -39.48609
     38       2.00000          -1.451087          -39.48608
     39       2.00000          -0.770603          -20.96919
     40       2.00000          -0.766821          -20.86626
     41       2.00000          -0.724726          -19.72079
     42       2.00000          -0.718743          -19.55799
     43       2.00000          -0.436804          -11.88605
     44       2.00000          -0.415243          -11.29934
     45       2.00000          -0.358491           -9.75505
     46       2.00000          -0.358491           -9.75505
     47       2.00000          -0.357915           -9.73937
     48       2.00000          -0.357915           -9.73937
     49       2.00000          -0.330839           -9.00259
     50       2.00000          -0.297313           -8.09031
     51       2.00000          -0.271775           -7.39538
     52       2.00000          -0.271775           -7.39538
     53       2.00000          -0.270004           -7.34720
     54       2.00000          -0.270004           -7.34719
     55       0.00000          -0.210019           -5.71492
     56       0.00000          -0.210018           -5.71489
     57       0.00000          -0.209730           -5.70705
     58       0.00000          -0.209729           -5.70702
     59       0.00000          -0.189021           -5.14352
     60       0.00000          -0.179481           -4.88392
     61       0.00000          -0.106717           -2.90391
     62       0.00000          -0.106716           -2.90390
     63       0.00000          -0.103195           -2.80807
     64       0.00000          -0.103194           -2.80806
     65       0.00000          -0.033921           -0.92304
     66       0.00000          -0.028049           -0.76325
     67       0.00000          -0.017750           -0.48300
     68       0.00000           0.001425            0.03877
     69       0.00000           0.056915            1.54874
     70       0.00000           0.066708            1.81522
     71       0.00000           0.093524            2.54491
     72       0.00000           0.093524            2.54493
     73       0.00000           0.093562            2.54595
     74       0.00000           0.093564            2.54601
     75       0.00000           0.133634            3.63635
     76       0.00000           0.181574            4.94087
     77       0.00000           0.181576            4.94093

  What follows are estimated values for band gap, HOMO, LUMO, etc.
  | They are estimated on a discrete k-point grid and not necessarily exact.
  | For converged numbers, create a DOS and/or band structure plot on a denser k-grid.

  Highest occupied state (VBM) at     -7.34719107 eV (relative to internal zero)
  | Occupation number:      2.00000000
  | K-point:       1 at    0.000000    0.000000    0.000000 (in units of recip. lattice)

  Lowest unoccupied state (CBM) at    -6.30984979 eV (relative to internal zero)
  | Occupation number:      0.00000000
  | K-point:     126 at    0.500000    0.500000    0.000000 (in units of recip. lattice)

  ESTIMATED overall HOMO-LUMO gap:      1.03734127 eV between HOMO at k-point 1 and LUMO at k-point 126
  | This appears to be an indirect band gap.
  | Smallest direct gap :      1.63226999 eV for k_point 1 at    0.500000    0.500000    0.000000 (in units of recip. lattice)
  The gap value is above 0.2 eV. Unless you are using a very sparse k-point grid,
  this system is most likely an insulator or a semiconductor.
  Calculating total energy contributions from superposition of free atom densities.

  Total energy components:
  | Sum of eigenvalues            :       -1947.62728096 Ha      -52997.63480495 eV
  | XC energy correction          :        -187.05109015 Ha       -5089.91913518 eV
  | XC potential correction       :         242.03519655 Ha        6586.11279594 eV
  | Free-atom electrostatic energy:       -1419.27126553 Ha      -38620.33611607 eV
  | Hartree energy correction     :           0.00000000 Ha           0.00000000 eV
  | Entropy correction            :          -0.00000000 Ha          -0.00000000 eV
  | ---------------------------
  | Total energy                  :       -3311.91444008 Ha      -90121.77726025 eV
  | Total energy, T -> 0          :       -3311.91444008 Ha      -90121.77726025 eV  <-- do not rely on this value for anything but (periodic) metals
  | Electronic free energy        :       -3311.91444008 Ha      -90121.77726025 eV

  Derived energy quantities:
  | Kinetic energy                :        3332.34378305 Ha       90677.68796662 eV
  | Electrostatic energy          :       -6457.20713298 Ha     -175709.54609170 eV
  | Energy correction for multipole
  | error in Hartree potential    :           0.00000000 Ha           0.00000000 eV
  | Sum of eigenvalues per atom                           :       -8832.93913416 eV
  | Total energy (T->0) per atom                          :      -15020.29621004 eV  <-- do not rely on this value for anything but (periodic) metals
  | Electronic free energy per atom                       :      -15020.29621004 eV
  Initialize hartree_potential_storage
  Max. number of atoms included in rho_multipole:            6

  End scf initialization - timings             :  max(cpu_time)    wall_clock(cpu1)
  | Time for scf. initialization               :        2.704 s           2.700 s
  | Boundary condition initialization          :        0.820 s           0.812 s
  | Relaxation initialization                  :        0.004 s           0.002 s
  | Integration                                :        1.412 s           1.404 s
  | Solution of K.-S. eqns.                    :        0.220 s           0.218 s
  | Grid partitioning                          :        0.120 s           0.113 s
  | Preloading free-atom quantities on grid    :        0.012 s           0.010 s
  | Free-atom superposition energy             :        0.012 s           0.010 s
  | Total energy evaluation                    :        0.004 s           0.000 s

  Partial memory accounting:
  | Current value for overall tracked memory usage on task 0  :          24.086 MB
  | Peak value for overall tracked memory usage on task 0     :          65.930 MB after allocating wave
  | Largest tracked array allocation on task 0 so far         :          28.396 MB  when allocating hamiltonian_shell
  Note:  These values currently only include a subset of arrays which are explicitly tracked.
  The "true" memory usage will be greater.
------------------------------------------------------------

------------------------------------------------------------
          Begin self-consistency iteration #    1

  Date     :  20191128, Time     :  130713.518
------------------------------------------------------------
  Evaluating new KS density using the density matrix
  Evaluating density matrix
  Time summed over all CPUs for getting density from density matrix: real work      112.678 s, elapsed      126.501 s
  Integration grid: deviation in total charge (<rho> - N_e) =   9.322321E-12
  Pulay mixing of updated and previous charge densities.

  Evaluating partitioned Hartree potential by multipole expansion.
  | Analytical far-field extrapolation by fixed multipoles:
  | Hartree multipole sum: apparent total charge =   0.400244E-03
  Summing up the Hartree potential.
  | Estimated reciprocal-space cutoff momentum G_max:         1.90186217 bohr^-1 .
  | Reciprocal lattice points for long-range Hartree potential:     672
  Time summed over all CPUs for potential: real work       10.790 s, elapsed       11.606 s
  | RMS charge density error from multipole expansion :   0.330290E-03
  | Average real-space part of the electrostatic potential :      0.00077589 eV

  Integrating Hamiltonian matrix: batch-based integration.
  Time summed over all CPUs for integration: real work       51.502 s, elapsed       58.465 s

  Updating Kohn-Sham eigenvalues and eigenvectors using ELSI and the ELPA eigensolver.
  Finished Cholesky decomposition
  | Time :     0.005 s
  Finished transformation to standard eigenproblem
  | Time :     0.008 s
  Starting LAPACK eigensolver
  Finished solving standard eigenproblem
  | Time :     0.020 s
  Finished back-transformation of eigenvectors
  | Time :     0.001 s

  Obtaining occupation numbers and chemical potential using ELSI.
  | Chemical potential (Fermi level):    -6.40136102eV
  Writing Kohn-Sham eigenvalues.
  K-point:       1 at    0.000000    0.000000    0.000000 (in units of recip. lattice)

  State    Occupation    Eigenvalue [Ha]    Eigenvalue [eV]
      1       2.00000        -179.997878        -4897.99147
      2       2.00000        -179.997878        -4897.99147
      3       2.00000         -88.709621        -2413.91159
      4       2.00000         -88.709621        -2413.91159
      5       2.00000         -88.709363        -2413.90459
      6       2.00000         -88.709363        -2413.90459
      7       2.00000         -19.766808         -537.88221
      8       2.00000         -19.766808         -537.88221
      9       2.00000         -16.356394         -445.08012
     10       2.00000         -16.356394         -445.08012
     11       2.00000         -16.356394         -445.08012
     12       2.00000         -16.356394         -445.08012
     13       2.00000         -16.356300         -445.07758
     14       2.00000         -16.356300         -445.07758
     15       2.00000          -7.815067         -212.65879
     16       2.00000          -7.815067         -212.65879
     17       2.00000          -7.814828         -212.65229
     18       2.00000          -7.814828         -212.65229
     19       2.00000          -5.784853         -157.41385
     20       2.00000          -5.784853         -157.41385
     21       2.00000          -5.784853         -157.41385
     22       2.00000          -5.784853         -157.41385
     23       2.00000          -5.784846         -157.41366
     24       2.00000          -5.784846         -157.41366
     25       2.00000          -5.784617         -157.40744
     26       2.00000          -5.784617         -157.40744
     27       2.00000          -5.784617         -157.40744
     28       2.00000          -5.784617         -157.40744
     29       2.00000          -5.784595         -157.40683
     30       2.00000          -5.784595         -157.40683
     31       2.00000          -2.328232          -63.35442
     32       2.00000          -2.328232          -63.35442
     33       2.00000          -1.458136          -39.67790
     34       2.00000          -1.458134          -39.67785
     35       2.00000          -1.456900          -39.64427
     36       2.00000          -1.456900          -39.64427
     37       2.00000          -1.456900          -39.64427
     38       2.00000          -1.456900          -39.64427
     39       2.00000          -0.767277          -20.87868
     40       2.00000          -0.763405          -20.77329
     41       2.00000          -0.721593          -19.63554
     42       2.00000          -0.715498          -19.46970
     43       2.00000          -0.435079          -11.83911
     44       2.00000          -0.413500          -11.25190
     45       2.00000          -0.357029           -9.71526
     46       2.00000          -0.357029           -9.71526
     47       2.00000          -0.356463           -9.69985
     48       2.00000          -0.356463           -9.69985
     49       2.00000          -0.328211           -8.93109
     50       2.00000          -0.294479           -8.01317
     51       2.00000          -0.268617           -7.30944
     52       2.00000          -0.268617           -7.30943
     53       2.00000          -0.266820           -7.26055
     54       2.00000          -0.266820           -7.26055
     55       0.00000          -0.212910           -5.79359
     56       0.00000          -0.212909           -5.79356
     57       0.00000          -0.212636           -5.78611
     58       0.00000          -0.212634           -5.78608
     59       0.00000          -0.191872           -5.22109
     60       0.00000          -0.182260           -4.95955
     61       0.00000          -0.108301           -2.94702
     62       0.00000          -0.108301           -2.94701
     63       0.00000          -0.104792           -2.85154
     64       0.00000          -0.104792           -2.85153
     65       0.00000          -0.032084           -0.87305
     66       0.00000          -0.026090           -0.70995
     67       0.00000          -0.016266           -0.44263
     68       0.00000           0.002730            0.07429
     69       0.00000           0.057235            1.55743
     70       0.00000           0.067520            1.83730
     71       0.00000           0.095229            2.59132
     72       0.00000           0.095229            2.59132
     73       0.00000           0.095230            2.59134
     74       0.00000           0.095232            2.59138
     75       0.00000           0.134633            3.66354
     76       0.00000           0.181874            4.94903
     77       0.00000           0.181876            4.94909

  What follows are estimated values for band gap, HOMO, LUMO, etc.
  | They are estimated on a discrete k-point grid and not necessarily exact.
  | For converged numbers, create a DOS and/or band structure plot on a denser k-grid.

  Highest occupied state (VBM) at     -7.26054589 eV (relative to internal zero)
  | Occupation number:      2.00000000
  | K-point:       1 at    0.000000    0.000000    0.000000 (in units of recip. lattice)

  Lowest unoccupied state (CBM) at    -6.35819116 eV (relative to internal zero)
  | Occupation number:      0.00000000
  | K-point:     126 at    0.500000    0.500000    0.000000 (in units of recip. lattice)

  ESTIMATED overall HOMO-LUMO gap:      0.90235473 eV between HOMO at k-point 1 and LUMO at k-point 126
  | This appears to be an indirect band gap.
  | Smallest direct gap :      1.46695720 eV for k_point 1 at    0.500000    0.500000    0.000000 (in units of recip. lattice)
  The gap value is above 0.2 eV. Unless you are using a very sparse k-point grid,
  this system is most likely an insulator or a semiconductor.

  Total energy components:
  | Sum of eigenvalues            :       -1947.63523545 Ha      -52997.85125765 eV
  | XC energy correction          :        -187.04553489 Ha       -5089.76796888 eV
  | XC potential correction       :         242.02756659 Ha        6585.90517410 eV
  | Free-atom electrostatic energy:       -1419.27126553 Ha      -38620.33611607 eV
  | Hartree energy correction     :           0.02500763 Ha           0.68049217 eV
  | Entropy correction            :          -0.00000000 Ha          -0.00000000 eV
  | ---------------------------
  | Total energy                  :       -3311.89946165 Ha      -90121.36967633 eV
  | Total energy, T -> 0          :       -3311.89946165 Ha      -90121.36967633 eV  <-- do not rely on this value for anything but (periodic) metals
  | Electronic free energy        :       -3311.89946165 Ha      -90121.36967633 eV

  Derived energy quantities:
  | Kinetic energy                :        3332.31635780 Ha       90676.94168779 eV
  | Electrostatic energy          :       -6457.17028456 Ha     -175708.54339523 eV
  | Energy correction for multipole
  | error in Hartree potential    :          -0.00002152 Ha          -0.00058571 eV
  | Sum of eigenvalues per atom                           :       -8832.97520961 eV
  | Total energy (T->0) per atom                          :      -15020.22827939 eV  <-- do not rely on this value for anything but (periodic) metals
  | Electronic free energy per atom                       :      -15020.22827939 eV

  Self-consistency convergence accuracy:
  | Change of charge density      :  0.3210E+00
  | Change of sum of eigenvalues  : -0.2165E+00 eV
  | Change of total energy        :  0.4076E+00 eV

  End self-consistency iteration #     1       :  max(cpu_time)    wall_clock(cpu1)
  | Time for this iteration                    :        2.764 s           2.761 s
  | Charge density update                      :        1.632 s           1.631 s
  | Density mixing & preconditioning           :        0.052 s           0.047 s
  | Hartree multipole update                   :        0.004 s           0.002 s
  | Hartree multipole summation                :        0.160 s           0.157 s
  | Integration                                :        0.760 s           0.757 s
  | Solution of K.-S. eqns.                    :        0.168 s           0.166 s
  | Total energy evaluation                    :        0.004 s           0.001 s

  Partial memory accounting:
  | Current value for overall tracked memory usage on task 0  :          24.086 MB
  | Peak value for overall tracked memory usage on task 0     :          70.296 MB after allocating gradient_basis_wave
  | Largest tracked array allocation on task 0 so far         :          28.396 MB  when allocating hamiltonian_shell
  Note:  These values currently only include a subset of arrays which are explicitly tracked.
  The "true" memory usage will be greater.
------------------------------------------------------------

------------------------------------------------------------
          Begin self-consistency iteration #    2

  Date     :  20191128, Time     :  130716.280
------------------------------------------------------------
  Evaluating new KS density using the density matrix
  Evaluating density matrix
  Time summed over all CPUs for getting density from density matrix: real work      112.422 s, elapsed      126.295 s
  Integration grid: deviation in total charge (<rho> - N_e) =   9.478640E-12
  Pulay mixing of updated and previous charge densities.

  Evaluating partitioned Hartree potential by multipole expansion.
  | Analytical far-field extrapolation by fixed multipoles:
  | Hartree multipole sum: apparent total charge =   0.563528E-02
  Summing up the Hartree potential.
  Time summed over all CPUs for potential: real work       12.489 s, elapsed       13.233 s
  | RMS charge density error from multipole expansion :   0.297805E-02
  | Average real-space part of the electrostatic potential :      0.00644736 eV

  Integrating Hamiltonian matrix: batch-based integration.
  Time summed over all CPUs for integration: real work       51.444 s, elapsed       58.404 s

  Updating Kohn-Sham eigenvalues and eigenvectors using ELSI and the ELPA eigensolver.
  Finished Cholesky decomposition
  | Time :     0.005 s
  Finished transformation to standard eigenproblem
  | Time :     0.008 s
  Starting LAPACK eigensolver
  Finished solving standard eigenproblem
  | Time :     0.020 s
  Finished back-transformation of eigenvectors
  | Time :     0.001 s

  Obtaining occupation numbers and chemical potential using ELSI.
  | Chemical potential (Fermi level):    -6.98976086eV
  What follows are estimated values for band gap, HOMO, LUMO, etc.
  | They are estimated on a discrete k-point grid and not necessarily exact.
  | For converged numbers, create a DOS and/or band structure plot on a denser k-grid.

  Highest occupied state (VBM) at     -7.00347377 eV (relative to internal zero)
  | Occupation number:      1.94753493
  | K-point:     126 at    0.500000    0.500000    0.000000 (in units of recip. lattice)

  Lowest unoccupied state (CBM) at    -6.98328619 eV (relative to internal zero)
  | Occupation number:      0.35984662
  | K-point:       7 at    0.000000    0.444444    0.000000 (in units of recip. lattice)

  ESTIMATED overall HOMO-LUMO gap:      0.02018758 eV between HOMO at k-point 126 and LUMO at k-point 7
  | This appears to be an indirect band gap.
  | Smallest direct gap :      0.11470188 eV for k_point 8 at    0.000000    0.444444    0.000000 (in units of recip. lattice)
  However, this system has fractional occupation numbers. Since we use a finite k-point grid,
  this material is metallic within the approximate finite broadening function (occupation_type)
  applied to determine the occupation numbers.

  Checking to see if s.c.f. parameters should be adjusted.
  Adjusted the Pulay mixing parameter (charge_mix_param) for an expected low-gap system. New value:   0.020000 .
  Adjusted the occupation broadening width for an expected low-gap system. New value:      0.05000000 eV.

  Total energy components:
  | Sum of eigenvalues            :       -1948.67136037 Ha      -53026.04565111 eV
  | XC energy correction          :        -187.01192673 Ha       -5088.85344442 eV
[...]
  | Electrostatic energy          :       -6457.03769469 Ha     -175704.93544132 eV
  | Energy correction for multipole
  | error in Hartree potential    :          -0.00012647 Ha          -0.00344154 eV
  | Sum of eigenvalues per atom                           :       -8818.19091950 eV
  | Total energy (T->0) per atom                          :      -15020.29503519 eV  <-- do not rely on this value for anything but (periodic) metals
  | Electronic free energy per atom                       :      -15020.29510803 eV

  atomic forces [eV/Ang]:
  -----------------------
  atom #    1
   Hellmann-Feynman              : -0.196243E-02  0.454420E-03  0.575122E+00
   Ionic forces                  :  0.000000E+00  0.000000E+00  0.000000E+00
   Multipole                     :  0.263722E-04 -0.125751E-03  0.146332E-01
   Pulay + GGA                   :  0.233306E-02 -0.589714E-03 -0.605181E+00
   Van der Waals                 :  0.535333E-04 -0.316226E-04  0.230977E-01
   ----------------------------------------------------------------
   Total forces(   1)            :  0.450538E-03 -0.292668E-03  0.767187E-02
  atom #    2
   Hellmann-Feynman              : -0.150440E-03  0.103882E-02  0.154813E+02
   Ionic forces                  :  0.000000E+00  0.000000E+00  0.000000E+00
   Multipole                     :  0.544113E-04  0.227451E-03  0.831183E-01
   Pulay + GGA                   :  0.501158E-04 -0.121886E-02 -0.154835E+02
   Van der Waals                 :  0.594909E-04 -0.348799E-04 -0.717868E-01
   ----------------------------------------------------------------
   Total forces(   2)            :  0.135781E-04  0.125310E-04  0.921360E-02
  atom #    3
   Hellmann-Feynman              :  0.146413E-03 -0.104268E-02 -0.154815E+02
   Ionic forces                  :  0.000000E+00  0.000000E+00  0.000000E+00
   Multipole                     : -0.541998E-04 -0.226858E-03 -0.831185E-01
   Pulay + GGA                   : -0.406817E-04  0.122575E-02  0.154838E+02
   Van der Waals                 : -0.595025E-04  0.349231E-04  0.717870E-01
   ----------------------------------------------------------------
   Total forces(   3)            : -0.797113E-05 -0.887104E-05 -0.903842E-02
  atom #    4
   Hellmann-Feynman              :  0.197255E-02 -0.437358E-03 -0.575161E+00
   Ionic forces                  :  0.000000E+00  0.000000E+00  0.000000E+00
   Multipole                     : -0.265503E-04  0.125464E-03 -0.146242E-01
   Pulay + GGA                   : -0.234482E-02  0.574572E-03  0.605096E+00
   Van der Waals                 : -0.535582E-04  0.315376E-04 -0.231007E-01
   ----------------------------------------------------------------
   Total forces(   4)            : -0.452373E-03  0.294216E-03 -0.778910E-02
  atom #    5
   Hellmann-Feynman              :  0.317248E-03 -0.870925E-05  0.133765E+02
   Ionic forces                  :  0.000000E+00  0.000000E+00  0.000000E+00
   Multipole                     : -0.509660E-04  0.259973E-03  0.657827E-01
   Pulay + GGA                   : -0.709686E-03 -0.501749E-05 -0.135310E+02
   Van der Waals                 :  0.611819E-05 -0.334603E-05  0.887016E-01
   ----------------------------------------------------------------
   Total forces(   5)            : -0.437286E-03  0.242900E-03  0.380378E-04
  atom #    6
   Hellmann-Feynman              : -0.316537E-03  0.427280E-05 -0.133766E+02
   Ionic forces                  :  0.000000E+00  0.000000E+00  0.000000E+00
   Multipole                     :  0.512917E-04 -0.259409E-03 -0.657796E-01
   Pulay + GGA                   :  0.704945E-03  0.124585E-04  0.135310E+02
   Van der Waals                 : -0.608166E-05  0.338781E-05 -0.886988E-01
   ----------------------------------------------------------------
   Total forces(   6)            :  0.433618E-03 -0.239290E-03 -0.926859E-04


  Analytical stress tensor components [eV]         xx                  yy                  zz                  xy                  xz                  yz
  -----------------------------------------------------------------------------------------------------------------------------------------------------------
    Nuclear Hellmann-Feynman      :    -0.2801666056E+02   -0.2802543644E+02   -0.5861264176E+02   -0.1952766005E-02    0.1397426448E-02   -0.9453806011E-03
    Multipole Hellmann-Feynman    :    -0.1262667750E+03   -0.1262831215E+03   -0.1401404567E+03   -0.4535961252E-02    0.3729113083E-02   -0.5902782924E-02
    On-site Multipole corrections :    -0.2295020026E+00   -0.2291824646E+00   -0.2290964169E+00   -0.2221361764E-07   -0.3104713128E-07   -0.1030393460E-03
    Strain deriv. of the orbitals :     0.1527140480E+03    0.1527387214E+03    0.1979626400E+03    0.6157579024E-02   -0.3659006835E-02    0.4853156565E-02
    vdW correction   :     0.1779024812E+01    0.1782795770E+01    0.9862688193E+00    0.3315694965E-02   -0.1872666089E-03    0.1094833309E-03
  -----------------------------------------------------------------------------------------------------------------------------------------------------------
  Sum of all contributions        :    -0.1986475550E-01   -0.1622318875E-01   -0.3328613075E-01    0.2984524519E-02    0.1280235040E-02   -0.1988562975E-02

  +-------------------------------------------------------------------+
  |              Analytical stress tensor - Symmetrized               |
  |                  Cartesian components [eV/A**3]                   |
  +-------------------------------------------------------------------+
  |                x                y                z                |
  |                                                                   |
  |  x        -0.00002020       0.00000303       0.00000130           |
  |  y         0.00000303      -0.00001649      -0.00000202           |
  |  z         0.00000130      -0.00000202      -0.00003384           |
  |                                                                   |
  |  Pressure:       0.00002351   [eV/A**3]                           |
  |                                                                   |
  +-------------------------------------------------------------------+

 * Warning: Stress tensor is anisotropic. Be aware that pressure is an isotropic quantity.

  Timings for VdW correction (Tkatchenko-Scheffler 2009 or later):
  | CPU time:        1.184 s, Wall clock time:        1.181 s.
  Removing unitary transformations (pure translations, rotations) from forces on atoms.
  Atomic forces before filtering:
  | Net force on center of mass :   0.104106E-06  0.881765E-05  0.330634E-05 eV/A
  Removing unitary transformations (rotations) from forces on lattice.
  Lattice forces before filtering:
  | Net torque relative to origin:  -0.113554E-18 -0.889434E-19  0.118011E-16 eV
  Atomic forces after filtering:
  | Net force on center of mass :   0.000000E+00  0.000000E+00 -0.482385E-17 eV/A
  Lattice forces after filtering:
  | Net torque relative to origin:  -0.113554E-18 -0.889434E-19  0.118011E-16 eV

  Energy and forces in a compact form:
  | Total energy uncorrected      :         -0.901217697740767E+05 eV
  | Total energy corrected        :         -0.901217702111235E+05 eV  <-- do not rely on this value for anything but (periodic) metals
  | Electronic free energy        :         -0.901217706481703E+05 eV
  Total atomic forces (unitary forces cleaned) [eV/Ang]:
  |   1          0.450520269193512E-03         -0.294137347616362E-03          0.767131795729943E-02
  |   2          0.135607286196530E-04          0.110613453629223E-04          0.921305060029119E-02
  |   3         -0.798848402047380E-05         -0.103406477499115E-04         -0.903896900559964E-02
  |   4         -0.452389983494261E-03          0.292746165904600E-03         -0.778964931560942E-02
  |   5         -0.437302865205587E-03          0.241430318008754E-03          0.374867540157795E-04
  |   6          0.433600334907157E-03         -0.240759833910003E-03         -0.932369903973433E-04

  ------------------------------------ 
  Start decomposition of the XC Energy 
  ------------------------------------ 
  X and C from original XC functional choice 
  Hartree-Fock Energy :          0.000000000 Ha              0.000000000 eV
  X Energy            :       -182.692223703 Ha          -4971.308344338 eV
  C Energy            :         -4.446568347 Ha           -120.997280998 eV
  Total XC Energy     :       -187.138792050 Ha          -5092.305625336 eV
  ------------------------------------ 
  LDA X and C from self-consistent density 
  X Energy LDA        :       -170.104292238 Ha          -4628.773301196 eV
  C Energy LDA        :         -8.600200240 Ha           -234.023355509 eV
  ------------------------------------ 
  End decomposition of the XC Energy 
  ------------------------------------ 

------------------------------------------------------------
  Relaxation / MD: End force evaluation.       :  max(cpu_time)    wall_clock(cpu1)
  | Time for this force evaluation             :       96.572 s          96.553 s

------------------------------------------------------------
  Geometry optimization: Attempting to predict improved coordinates.

  +-------------------------------------------------------------------+
  | Generalized derivatives on lattice vectors [eV/A]                 |
  +-------------------------------------------------------------------+
  |lattice_vector      -0.00538318      -0.00189372       0.00003921  |
  |lattice_vector       0.00102260      -0.00555863      -0.00068135  |
  |lattice_vector       0.00001280      -0.00001989      -0.00033286  |
  +-------------------------------------------------------------------+
  | Forces on lattice vectors cleaned from atomic contributions [eV/A]|
  +-------------------------------------------------------------------+
  |lattice_vector       0.00566633       0.00172583      -0.00616627  |
  |lattice_vector      -0.00130577       0.00572652       0.00680884  |
  |lattice_vector      -0.00000035       0.00000912      -0.00000561  |
  +-------------------------------------------------------------------+
  | Projected forces for shape relaxation  [eV/A]                     |
  +-------------------------------------------------------------------+
  |lattice_vector       0.00566633       0.00000000       0.00000000  |
  |lattice_vector      -0.00280610       0.00486031      -0.00000000  |
  |lattice_vector       0.00000000      -0.00000000      -0.00000561  |
  +-------------------------------------------------------------------+
  Removing unitary transformations (pure translations, rotations) from forces on atoms.
  Atomic forces before filtering:
  | Net force on center of mass :   0.000000E+00  0.000000E+00 -0.482385E-17 eV/A
  Removing unitary transformations (rotations) from forces on lattice.
  Lattice forces before filtering:
  | Net torque relative to origin:  -0.102358E-34  0.199918E-37 -0.147513E-17 eV
  Atomic forces after filtering:
  | Net force on center of mass :   0.000000E+00  0.000000E+00  0.246092E-17 eV/A
  Lattice forces after filtering:
  | Net torque relative to origin:  -0.102358E-34  0.199918E-37 -0.147513E-17 eV
  || Forces on lattice vectors || =   0.566633E-02 eV/A.
  Net remaining forces (excluding translations, rotations) in present geometry:
  Maximum force component is  0.921305E-02 eV/A.
  Present geometry is converged.

------------------------------------------------------------
  Final atomic structure:
                         x [A]             y [A]             z [A]
  lattice_vector         3.37005747        0.00000000        0.00000000
  lattice_vector        -1.68503154        2.91856025       -0.00000000
  lattice_vector        -0.00000000        0.00000000       99.99999106

            atom        -0.00017235        0.00011220      -11.65850915  Ti
            atom         1.68507020       -0.97293243       -4.59133725  S
            atom        -1.68507119        0.97293179      -13.09213350  S
            atom         0.00017290       -0.00011095       -6.02494460  Ti
            atom         1.68506216       -0.97290148      -10.22695824  S
            atom        -1.68506174        0.97290087       -7.45649432  S

  Fractional coordinates:
                         L1                L2                L3
       atom_frac        -0.00003192        0.00003844       -0.11658510  Ti
       atom_frac         0.33333182       -0.33336041       -0.04591338  S
       atom_frac        -0.33333222        0.33336019       -0.13092135  S
       atom_frac         0.00003230       -0.00003802       -0.06024945  Ti
       atom_frac         0.33333474       -0.33334980       -0.10226959  S
       atom_frac        -0.33333472        0.33334959       -0.07456495  S
------------------------------------------------------------

------------------------------------------------------------------------------
  Final output of selected total energy values:

  The following output summarizes some interesting total energy values
  at the end of a run (AFTER all relaxation, molecular dynamics, etc.).

  | Total energy of the DFT / Hartree-Fock s.c.f. calculation      :         -90121.769774077 eV
  | Final zero-broadening corrected energy (caution - metals only) :         -90121.770211124 eV
  | For reference only, the value of 1 Hartree used in FHI-aims is :             27.211384500 eV

  Before relying on these values, please be sure to understand exactly which
  total energy value is referred to by a given number. Different objects may
  all carry the same name 'total energy'. Definitions:

  Total energy of the DFT / Hartree-Fock s.c.f. calculation:
  | Note that this energy does not include ANY quantities calculated after the
  | s.c.f. cycle, in particular not ANY RPA, MP2, etc. many-body perturbation terms.

  Final zero-broadening corrected energy:
  | For metallic systems only, a broadening of the occupation numbers at the Fermi
  | level can be extrapolated back to zero broadening by an electron-gas inspired
  | formula. For all systems that are not real metals, this value can be
  | meaningless and should be avoided.

------------------------------------------------------------------------------
  Methods described in the following list of references were used in this FHI-aims run.
  If you publish the results, please make sure to cite these reference if they apply.
  FHI-aims is an academic code, and for our developers (often, Ph.D. students
  and postdocs), scientific credit in the community is essential.
  Thank you for helping us!

  For any use of FHI-aims, please cite:

    Volker Blum, Ralf Gehrke, Felix Hanke, Paula Havu, Ville Havu,
    Xinguo Ren, Karsten Reuter, and Matthias Scheffler
    'Ab initio molecular simulations with numeric atom-centered orbitals'
    Computer Physics Communications 180, 2175-2196 (2009)
    http://dx.doi.org/10.1016/j.cpc.2009.06.022


  For the analytical stress tensor used in your run, please cite:

    Franz Knuth, Christian Carbogno, Viktor Atalla, Volker Blum, Matthias Scheffler
    'All-electron formalism for total energy strain derivatives and
    stress tensor components for numeric atom-centered orbitals'
    Computer Physics Communications 190, 33-50 (2015).
    http://dx.doi.org/10.1016/j.cpc.2015.01.003


  The scalable eigensolver library ELPA was used in your run.
  ELPA is essential especially for large systems on hundreds or thousands of CPUs.
  For ELPA, please cite:

    Andreas Marek, Volker Blum, Rainer Johanni, Ville Havu, Bruno Lang,
    Thomas Auckenthaler, Alexander Heinecke, Hans-Joachim Bungartz, and Hermann Lederer,
    'The ELPA Library - Scalable Parallel Eigenvalue Solutions
    for Electronic Structure Theory and Computational Science'
    The Journal of Physics: Condensed Matter 26, 213201 (2014).
    http://dx.doi.org/10.1088/0953-8984/26/21/213201


  The ELSI infrastructure was used in your run to solve the Kohn-Sham electronic structure.
  Please check out http://elsi-interchange.org to learn more.
  If scalability is important for your project, please acknowledge ELSI by citing:

    V. W-z. Yu, F. Corsetti, A. Garcia, W. P. Huhn, M. Jacquelin, W. Jia,
    B. Lange, L. Lin, J. Lu, W. Mi, A. Seifitokaldani, A. Vazquez-Mayagoitia,
    C. Yang, H. Yang, and V. Blum
    'ELSI: A unified software interface for Kohn-Sham electronic structure solvers'
    Computer Physics Communications 222, 267-285 (2018).
    http://dx.doi.org/10.1016/j.cpc.2017.09.007


  For the real-space grid partitioning and parallelization used in this calculation, please cite:

    Ville Havu, Volker Blum, Paula Havu, and Matthias Scheffler,
    'Efficient O(N) integration for all-electron electronic structure calculation'
    'using numerically tabulated basis functions'
    Journal of Computational Physics 228, 8367-8379 (2009).
    http://dx.doi.org/10.1016/j.jcp.2009.08.008

  Of course, there are many other important community references, e.g., those cited in the
  above references. Our list is limited to references that describe implementations in the
  FHI-aims code. The reason is purely practical (length of this list) - please credit others as well.

------------------------------------------------------------
          Leaving FHI-aims.
          Date     :  20191128, Time     :  132124.254

          Computational steps:
          | Number of self-consistency cycles          :          173
          | Number of SCF (re)initializations          :            8
          | Number of relaxation steps                 :            7

          Detailed time accounting                     :  max(cpu_time)    wall_clock(cpu1)
          | Total time                                 :      854.488 s         853.885 s
          | Preparation time                           :        0.376 s           0.374 s
          | Boundary condition initalization           :        6.392 s           6.341 s
          | Grid partitioning                          :        0.908 s           0.891 s
          | Preloading free-atom quantities on grid    :        0.656 s           0.642 s
          | Free-atom superposition energy             :        0.096 s           0.082 s
          | Total time for integrations                :      146.836 s         146.330 s
          | Total time for solution of K.-S. equations :       30.484 s          30.131 s
          | Total time for EV reorthonormalization     :        0.184 s           0.128 s
          | Total time for density & force components  :      608.832 s         607.968 s
          | Total time for mixing & preconditioning    :        7.228 s           6.989 s
          | Total time for Hartree multipole update    :        0.692 s           0.385 s
          | Total time for Hartree multipole sum       :       43.832 s          43.410 s
          | Total time for total energy evaluation     :        0.696 s           0.078 s
          | Total time for scaled ZORA corrections     :        0.000 s           0.000 s
          | Total time for vdW correction              :        9.364 s           9.336 s

          Partial memory accounting:
          | Residual value for overall tracked memory usage across tasks :           0.000 MB (should be 0.000 MB)
          | Peak values for overall tracked memory usage (after allocating wave_pulay):
          |   Minimum:      129.520 MB (on task 29)
          |   Maximum:      141.433 MB (on task 77)
          |   Average:      136.181 MB
          | Largest tracked array allocation (density_matrix_con):
          |   Minimum:       35.079 MB (on task 29)
          |   Maximum:       41.296 MB (on task 77)
          |   Average:       38.931 MB
          Note:  These values currently only include a subset of arrays which are explicitly tracked.
          The "true" memory usage will be greater.

          Have a nice day.
------------------------------------------------------------
