  MPI-parallelism will be employed.
------------------------------------------------------------
          Invoking FHI-aims ...
          Version 171221_1
          Compiled on 2018/11/06 at 11:18:49 on host headnode.

          When using FHI-aims, please cite the following reference:

          Volker Blum, Ralf Gehrke, Felix Hanke, Paula Havu,
          Ville Havu, Xinguo Ren, Karsten Reuter, and Matthias Scheffler,
          'Ab Initio Molecular Simulations with Numeric Atom-Centered Orbitals',
          Computer Physics Communications 180, 2175-2196 (2009)

          For any questions about FHI-aims, please visit the aimsclub website
          with its forums and wiki. Contributions to both the forums and the
          wiki are warmly encouraged - they are for you, and everyone is welcome there.

------------------------------------------------------------



  Date     :  20191129, Time     :  104831.374
  Time zero on CPU 1             :   0.428000000000000E+00  s.
  Internal wall clock time zero  :           344256511.374  s.

  FHI-aims created a unique identifier for this run for later identification
  aims_uuid : C45DB482-A9BE-48EC-A948-BC82F4816F97

  Using       80 parallel tasks.
  Task        0 on host t021 reporting.
  Task        1 on host t021 reporting.
  Task        2 on host t021 reporting.
  Task        3 on host t021 reporting.
  Task        4 on host t021 reporting.
  Task        5 on host t021 reporting.
  Task        6 on host t021 reporting.
  Task        7 on host t021 reporting.
  Task        8 on host t021 reporting.
  Task        9 on host t021 reporting.
  Task       10 on host t021 reporting.
  Task       11 on host t021 reporting.
  Task       12 on host t021 reporting.
  Task       13 on host t021 reporting.
  Task       14 on host t021 reporting.
  Task       15 on host t021 reporting.
  Task       16 on host t021 reporting.
  Task       17 on host t021 reporting.
  Task       18 on host t021 reporting.
  Task       19 on host t021 reporting.
  Task       20 on host t019 reporting.
  Task       21 on host t019 reporting.
  Task       22 on host t019 reporting.
  Task       23 on host t019 reporting.
  Task       24 on host t019 reporting.
  Task       25 on host t019 reporting.
  Task       26 on host t019 reporting.
  Task       27 on host t019 reporting.
  Task       28 on host t019 reporting.
  Task       29 on host t019 reporting.
  Task       30 on host t019 reporting.
  Task       31 on host t019 reporting.
  Task       32 on host t019 reporting.
  Task       33 on host t019 reporting.
  Task       34 on host t019 reporting.
  Task       35 on host t019 reporting.
  Task       36 on host t019 reporting.
  Task       37 on host t019 reporting.
  Task       38 on host t019 reporting.
  Task       39 on host t019 reporting.
  Task       40 on host t018 reporting.
  Task       41 on host t018 reporting.
  Task       42 on host t018 reporting.
  Task       43 on host t018 reporting.
  Task       44 on host t018 reporting.
  Task       45 on host t018 reporting.
  Task       46 on host t018 reporting.
  Task       47 on host t018 reporting.
  Task       48 on host t018 reporting.
  Task       49 on host t018 reporting.
  Task       50 on host t018 reporting.
  Task       51 on host t018 reporting.
  Task       52 on host t018 reporting.
  Task       53 on host t018 reporting.
  Task       54 on host t018 reporting.
  Task       55 on host t018 reporting.
  Task       56 on host t018 reporting.
  Task       57 on host t018 reporting.
  Task       58 on host t018 reporting.
  Task       59 on host t018 reporting.
  Task       60 on host t016 reporting.
  Task       61 on host t016 reporting.
  Task       62 on host t016 reporting.
  Task       63 on host t016 reporting.
  Task       64 on host t016 reporting.
  Task       65 on host t016 reporting.
  Task       66 on host t016 reporting.
  Task       67 on host t016 reporting.
  Task       68 on host t016 reporting.
  Task       69 on host t016 reporting.
  Task       70 on host t016 reporting.
  Task       71 on host t016 reporting.
  Task       72 on host t016 reporting.
  Task       73 on host t016 reporting.
  Task       74 on host t016 reporting.
  Task       75 on host t016 reporting.
  Task       76 on host t016 reporting.
  Task       77 on host t016 reporting.
  Task       78 on host t016 reporting.
  Task       79 on host t016 reporting.

  Performing system and environment tests:
  | Environment variable OMP_NUM_THREADS correctly set to 1.
  | Stacksize not measured: no C compiler
  | Checking for scalapack...
  | Testing pdtran()...
  | All pdtran() tests passed.

  Obtaining array dimensions for all initial allocations:
  
  -----------------------------------------------------------------------
  Parsing control.in (first pass over file, find array dimensions only).
  The contents of control.in will be repeated verbatim below
  unless switched off by setting 'verbatim_writeout .false.' .
  in the first line of control.in .
  -----------------------------------------------------------------------
  
  #===============================================================================
  # FHI-aims file: ./control.in
  # Created using the Atomic Simulation Environment (ASE)
  # Wed Nov 27 20:14:31 2019
  #
  # List of parameters used to initialize the calculator:
  #     xc : pbe
  #     k_grid : [18, 18, 18]
  #     relativistic : ('atomic_zora', 'scalar')
  #     species_dir : /chemsoft/FHI-aims/stable/species_defaults/tight
  #     spin : none
  #     adjust_scf : once 2
  #===============================================================================
  xc                                 pbe
  many_body_dispersion
  k_grid                             18 18 18
  relativistic                       atomic_zora scalar
  spin                               none
  adjust_scf                         once 2
  charge_mix_param 0.02
  ### geometry optimisation section
  relax_geometry    bfgs    1E-2
  relax_unit_cell       fixed_angles
  #===============================================================================
  
  ################################################################################
  #
  #  FHI-aims code project
  # Volker Blum, Fritz Haber Institute Berlin, 2009
  #
  #  Suggested "tight" defaults for Mo atom (to be pasted into control.in file)
  #
  ################################################################################
    species        Mo
  #     global species definitions
      nucleus             42
      mass                95.94
  #
      l_hartree           6
  #
      cut_pot             4.0  2.0  1.0
      basis_dep_cutoff    1e-4
  #
      radial_base         59 7.0
      radial_multiplier   2
      angular_grids specified
        division   0.3117   50
        division   0.6750  110
        division   1.0351  194
        division   1.2073  302
        division   1.6402  434
  #      division   1.9185  590
  #      division   2.0237  770
  #      division   2.0980  974
  #      division   2.7972 1202
  #      outer_grid  974
        outer_grid  434
  ################################################################################
  #
  #  Definition of "minimal" basis
  #
  ################################################################################
  #     valence basis states
      valence      5  s   1.
      valence      4  p   6.
      valence      4  d   5.
  #     ion occupancy
      ion_occ     5  s   0.
      ion_occ     4  p   6.
      ion_occ     4  d   4.
  ################################################################################
  #
  #  Suggested additional basis functions. For production calculations,
  #  uncomment them one after another (the most important basis functions are
  #  listed first).
  #
  #  Constructed for dimers: 1.675 A, 1.9 A, 2.375 A, 3.00 A, 4.00 A
  #
  ################################################################################
  #  "First tier"  - max. impr. -711.23  meV, min. impr. -21.07 meV
       hydro 4 f 8.4
       hydro 3 d 2.8
       ionic 5 p auto
       hydro 5 g 12
       ionic 5 s auto
  #  "Second tier" - max. impr. -39.38  meV, min. impr. -2.68 meV
       hydro 4 f 12.4
       hydro 3 d 3.3
       hydro 6 h 17.2
       hydro 4 f 7.6
       hydro 3 p 3.0
       hydro 1 s 0.65
  #  "Third tier"  - max. impr. -5.50 meV, min. impr. -0.47 meV
  #     hydro 4 f 29.2
  #     hydro 5 g 11.2
  #     hydro 3 d 6.8
  #     hydro 6 h 14.8
  #     hydro 2 p 2.3
  #     hydro 4 s 3.8
  #  "Fourth tier"  - max. impr. -0.58 meV, min. impr. -0.19 meV
  #     hydro 5 f 6.8
  #     hydro 5 d 14.8
  #     hydro 6 s 7.8
  #     hydro 5 g 20.8
  #     hydro 5 d 10.4
  #     hydro 5 p 9.8
  #  Further functions - -0.17 meV and below
  #     hydro 5 d 3.2
  ################################################################################
  #
  #  FHI-aims code project
  # Volker Blum, Fritz Haber Institute Berlin, 2009
  #
  #  Suggested "tight" defaults for S atom (to be pasted into control.in file)
  #
  #  Revised Jan 04, 2011, following tests (SiC) done by Lydia Nemec:
  #     d and g functions of tier 2 now enabled by default.
  #
  ################################################################################
    species        S
  #     global species definitions
      nucleus             16
      mass                32.065
  #
      l_hartree           6
  #
      cut_pot             4.0          2.0  1.0
      basis_dep_cutoff    1e-4
  #
      radial_base         44 7.0
      radial_multiplier   2
      angular_grids       specified
        division   0.4665  110
        division   0.5810  194
        division   0.7139  302
        division   0.8274  434
  #      division   0.9105  590
  #      division   1.0975  770
  #      division   1.2028  974
  #      outer_grid  974
        outer_grid  434
  ################################################################################
  #
  #  Definition of "minimal" basis
  #
  ################################################################################
  #     valence basis states
      valence      3  s   2.
      valence      3  p   4.
  #     ion occupancy
      ion_occ      3  s   1.
      ion_occ      3  p   3.
  ################################################################################
  #
  #  Suggested additional basis functions. For production calculations,
  #  uncomment them one after another (the most important basis functions are
  #  listed first).
  #
  #  Constructed for dimers: 1.6 A, 1.9 A, 2.5 A, 3.25 A, 4.0 A
  #
  ################################################################################
  #  "First tier" - improvements: -652.81 meV to -45.53 meV
       ionic 3 d auto
       hydro 2 p 1.8
       hydro 4 f 7
       ionic 3 s auto
  #  "Second tier" - improvements: -30.20 meV to -1.74 meV
       hydro 4 d 6.2
       hydro 5 g 10.8
       hydro 4 p 4.9
       hydro 5 f 10
       hydro 1 s 0.8
  #  "Third tier" - improvements: -1.04 meV to -0.20 meV
  #     hydro 3 d 3.9
  #     hydro 3 d 2.7
  #     hydro 5 g 12
  #     hydro 4 p 10.4
  #     hydro 5 f 12.4
  #     hydro 2 s 1.9
  #  "Fourth tier" - improvements: -0.35 meV to -0.06 meV
  #     hydro 4 d 10.4
  #     hydro 4 p 7.2
  #     hydro 4 d 10
  #     hydro 5 g 19.2
  #     hydro 4 s 12
  #
  ################################################################################
  #
  # For methods that use the localized form of the "resolution of identity" for
  # the two-electron Coulomb operator (RI_method LVL), particularly Hartree-Fock and
  # hybrid density functional calculations, the highest accuracy can be obtained by
  # uncommenting the line beginning with "for_aux"  below, thus adding an extra g radial
  # function to the construction of the product basis set for the expansion.
  # See Ref. New J. Phys. 17, 093020 (2015) for more information, particularly Figs. 1 and 6.
  #
  ################################################################################
  #
  # for_aux hydro 5 g 6.0
  
  -----------------------------------------------------------------------
  Completed first pass over input file control.in .
  -----------------------------------------------------------------------
  
  
  -----------------------------------------------------------------------
  Parsing geometry.in (first pass over file, find array dimensions only).
  The contents of geometry.in will be repeated verbatim below
  unless switched off by setting 'verbatim_writeout .false.' .
  in the first line of geometry.in .
  -----------------------------------------------------------------------
  
  #=======================================================
  # FHI-aims file: ./geometry.in
  # Created using the Atomic Simulation Environment (ASE)
  # Wed Nov 27 20:14:31 2019
  #=======================================================
  lattice_vector 3.1600000000000001 0.0000000000000000 0.0000000000000000
  lattice_vector -1.5800000000000001 2.7366402800000000 0.0000000000000000
  lattice_vector 0.0000000000000000 0.0000000000000000 12.3000000000000007
  atom -0.0000000000000000 1.8244268500000000 3.0750000000000002 Mo
  atom 1.5800000000000001 0.9122134300000000 9.2249999999999996 Mo
  atom -0.0000000000000000 1.8244268500000000 10.8055500000000002 S
  atom 1.5800000000000001 0.9122134300000000 4.6555499999999999 S
  atom 1.5800000000000001 0.9122134300000000 1.4944500000000001 S
  atom -0.0000000000000000 1.8244268500000000 7.6444500000000000 S
  
  -----------------------------------------------------------------------
  Completed first pass over input file geometry.in .
  -----------------------------------------------------------------------
  

  Basic array size parameters:
  | Number of species                 :        2
  | Number of atoms                   :        6
  | Number of lattice vectors         :        3
  | Max. basis fn. angular momentum   :        5
  | Max. atomic/ionic basis occupied n:        5
  | Max. number of basis fn. types    :        3
  | Max. radial fns per species/type  :       10
  | Max. logarithmic grid size        :     1436
  | Max. radial integration grid size :      119
  | Max. angular integration grid size:      434
  | Max. angular grid division number :        8
  | Radial grid for Hartree potential :     1436
  | Number of spin channels           :        1

------------------------------------------------------------
          Reading file control.in.
------------------------------------------------------------
  XC: Using PBE gradient-corrected functionals.
  Using the default MBD implementation with analytical forces
  Found k-point grid:        18        18        18
  Scalar relativistic treatment of kinetic energy: on-site free-atom approximation to ZORA.
  Spin treatment: No spin polarisation.
  S.C.F. convergence parameters will be adjusted in iteration number     2 of the first full s.c.f. cycle only.
  Charge density mixing - mixing parameter:     0.0200
  Geometry relaxation: Modified BFGS - TRM (trust radius method, i.e., trusted quadratic extrapolation).
  Convergence accuracy for geometry relaxation: Maximum force <   0.100000E-01 eV/A.
 
  Reading configuration options for species Mo                  .
  | Found nuclear charge :  42.0000
  | Found atomic mass :    95.9400000000000      amu
  | Found l_max for Hartree potential  :   6
  | Found cutoff potl. onset [A], width [A], scale factor :    4.00000    2.00000    1.00000
  | Threshold for basis-dependent cutoff potential is   0.100000E-03
  | Found data for basic radial integration grid :    59 points, outermost radius =    7.000 A
  | Found multiplier for basic radial grid :   2
  | Found angular grid specification: user-specified.
  | Specified grid contains     6 separate shells.
  | Check grid settings after all constraints further below.
  | Found free-atom valence shell :  5 s   1.000
  | Found free-atom valence shell :  4 p   6.000
  | Found free-atom valence shell :  4 d   5.000
  | Found free-ion valence shell :  5 s   0.000
  | Found free-ion valence shell :  4 p   6.000
  | Found free-ion valence shell :  4 d   4.000
  | Found hydrogenic basis function :  4 f   8.400
  | Found hydrogenic basis function :  3 d   2.800
  | Found ionic basis function :  5 p , default cutoff radius.
  | Found hydrogenic basis function :  5 g  12.000
  | Found ionic basis function :  5 s , default cutoff radius.
  | Found hydrogenic basis function :  4 f  12.400
  | Found hydrogenic basis function :  3 d   3.300
  | Found hydrogenic basis function :  6 h  17.200
  | Found hydrogenic basis function :  4 f   7.600
  | Found hydrogenic basis function :  3 p   3.000
  | Found hydrogenic basis function :  1 s   0.650
  Species Mo                  : Missing cutoff potential type.
  Defaulting to exp(1/x)/(1-x)^2 type cutoff potential.
  Species Mo: No 'logarithmic' tag. Using default grid for free atom:
  | Default logarithmic grid data [bohr] : 0.1000E-03 0.1000E+03 0.1012E+01
  | Will include ionic basis functions of  2.0-fold positive Mo                   ion.
  Species Mo: On-site basis accuracy parameter (for Gram-Schmidt orthonormalisation) not specified.
  Using default value basis_acc =  0.1000000E-03.
  Species Mo                  : Using default innermost maximum threshold i_radial=  2 for radial functions.
  Species Mo                  : Default cutoff onset for free atom density etc. : 0.40000000E+01 AA.
  Species Mo                  : Basic radial grid will be enhanced according to radial_multiplier =   2, to contain   119 grid points.
 
  Reading configuration options for species S                   .
  | Found nuclear charge :  16.0000
  | Found atomic mass :    32.0650000000000      amu
  | Found l_max for Hartree potential  :   6
  | Found cutoff potl. onset [A], width [A], scale factor :    4.00000    2.00000    1.00000
  | Threshold for basis-dependent cutoff potential is   0.100000E-03
  | Found data for basic radial integration grid :    44 points, outermost radius =    7.000 A
  | Found multiplier for basic radial grid :   2
  | Found angular grid specification: user-specified.
  | Specified grid contains     5 separate shells.
  | Check grid settings after all constraints further below.
  | Found free-atom valence shell :  3 s   2.000
  | Found free-atom valence shell :  3 p   4.000
  | Found free-ion valence shell :  3 s   1.000
  | Found free-ion valence shell :  3 p   3.000
  | Found ionic basis function :  3 d , default cutoff radius.
  | Found hydrogenic basis function :  2 p   1.800
  | Found hydrogenic basis function :  4 f   7.000
  | Found ionic basis function :  3 s , default cutoff radius.
  | Found hydrogenic basis function :  4 d   6.200
  | Found hydrogenic basis function :  5 g  10.800
  | Found hydrogenic basis function :  4 p   4.900
  | Found hydrogenic basis function :  5 f  10.000
  | Found hydrogenic basis function :  1 s   0.800
  Species S                   : Missing cutoff potential type.
  Defaulting to exp(1/x)/(1-x)^2 type cutoff potential.
  Species S : No 'logarithmic' tag. Using default grid for free atom:
  | Default logarithmic grid data [bohr] : 0.1000E-03 0.1000E+03 0.1012E+01
  | Will include ionic basis functions of  2.0-fold positive S                    ion.
  Species S : On-site basis accuracy parameter (for Gram-Schmidt orthonormalisation) not specified.
  Using default value basis_acc =  0.1000000E-03.
  Species S                   : Using default innermost maximum threshold i_radial=  2 for radial functions.
  Species S                   : Default cutoff onset for free atom density etc. : 0.40000000E+01 AA.
  Species S                   : Basic radial grid will be enhanced according to radial_multiplier =   2, to contain    89 grid points.
  | MBD: Using the same k-grid sampling as DFT
 
  Finished reading input file 'control.in'. Consistency checks are next.
 
  MPI_IN_PLACE appears to work with this MPI implementation.
  | Keeping use_mpi_in_place .true. (see manual).
  Target number of points in a grid batch is not set. Defaulting to  100
  Method for grid partitioning is not set. Defaulting to parallel hash+maxmin partitioning.
  Batch size limit is not set. Defaulting to    200
  By default, will store active basis functions for each batch.
  If in need of memory, prune_basis_once .false. can be used to disable this option.
  communication_type for Hartree potential was not specified.
  Defaulting to calc_hartree .
  Defaulting to Pulay charge density mixer.
  Pulay mixer: Number of relevant iterations not set.
  Defaulting to    8 iterations.
  Pulay mixer: Number of initial linear mixing iterations not set.
  Defaulting to    0 iterations.
  Work space size for distributed Hartree potential not set.
  Defaulting to   0.200000E+03 MB.
  Algorithm-dependent basis array size parameters:
  | n_max_pulay                         :        8
 * Notice: The s.c.f. convergence criterion sc_accuracy_rho was not provided.
 * We used to stop in this case, and ask the user to provide reasonable
 * scf convergence criteria. However, this led some users to employ criteria
 * that led to extremely long run times, e.g., for simple relaxation.
 * We now preset a default value for sc_accuracy_rho if it is not set.
 * You may still wish to check if this setting is too tight or too loose for your needs.
 * Based on n_atoms, FHI-aims chose sc_accuracy_rho =  0.100000E-05 .
  Maximum number of self-consistency iterations not provided.
  Presetting  1000 iterations.
  Presetting      1001 iterations before the initial mixing cycle
  is restarted anyway using the sc_init_iter criterion / keyword.
  Presetting a factor      1.000 between actual scf density residual
  and density convergence criterion sc_accuracy_rho below which sc_init_iter
  takes no effect.
 * No s.c.f. convergence criteria (sc_accuracy_*) were provided in control.in.
 * The run will proceed with a reasonable default guess, but please check whether.
 * the s.c.f. cycles seem to take too much or too little time.
  No maximum number of relaxation steps, defaulting to     1000
  Default initial Hessian is Lindh matrix (thres = 15.00) plus  0.200000E+01 eV/A^2 times unity.
  No maximum energy tolerance for TRM/BFGS moves, defaulting to   0.200000E-03
  No harmonic length scale. Defaulting to   0.250000E-01 A.
  No trust radius initializer. Defaulting to   0.200000E+00 A.
  Unit cell relaxation: Restricted relaxation with fixed angles between lattice vectors.
  Unit cell relaxation: Analytical stress will be used.
  Analytical stress will be computed.
  Analytical stress calculation: Only the upper triangle is calculated.
                                 Final output is symmetrized.
  Analytical stress calculation: scf convergence accuracy of stress not set.
                                 Analytical stress self-consistency will not be checked explicitly.
                                 Be sure to set other criteria like sc_accuracy_rho tight enough.
  Force calculation: scf convergence accuracy of forces not set.
  Defaulting to 'sc_accuracy_forces not_checked'.
  Handling of forces: Unphysical translation and rotation will be removed from forces.
  No accuracy limit for integral partition fn. given. Defaulting to  0.1000E-14.
  No threshold value for u(r) in integrations given. Defaulting to  0.1000E-05.
  No occupation type (smearing scheme) given. Defaulting to Gaussian broadening, width =  0.1000E-01 eV.
  The width will be adjusted in iteration number     2 of the first full s.c.f. cycle only.
  S.C.F. convergence parameters will be adjusted in iteration number     2 of the first full s.c.f. cycle only.
  No accuracy for occupation numbers given. Defaulting to  0.1000E-12.
  No threshold value for occupation numbers given. Defaulting to  0.0000E+00.
  No accuracy for fermi level given. Defaulting to  0.1000E-19.
  Maximum # of iterations to find E_F not set. Defaulting to  200.
  Preferred method for the eigenvalue solver ('KS_method') not specified in 'control.in'.
  Defaulting to serial version, 'lapack_fast', since more k-points than CPUs available.
  Will not use alltoall communication since running on < 1024 CPUs.
  Threshold for basis singularities not set.
  Default threshold for basis singularities:  0.1000E-04
  partition_type (choice of integration weights) for integrals was not specified.
  | Using a version of the partition function of Stratmann and coworkers ('stratmann_smoother').
  | At each grid point, the set of atoms used to build the partition table is smoothly restricted to
  | only those atoms whose free-atom density would be non-zero at that grid point.
  Partitioning for Hartree potential was not defined. Using partition_type for integrals.
  | Adjusted default value of keyword multip_moments_threshold to:       0.10000000E-11
  | This value may affect high angular momentum components of the Hartree potential in periodic systems.
  Angular momentum expansion for Kerker preconditioner not set explicitly.
  | Using default value of   0
  No explicit requirement for turning off preconditioner.
  | By default, it will be turned off when the charge convergence reaches
  | sc_accuracy_rho  =   0.100000E-05
  No special mixing parameter while Kerker preconditioner is on.
  Using default: charge_mix_param =     0.0200.
  No q(lm)/r^(l+1) cutoff set for long-range Hartree potential.
  | Using default value of  0.100000E-09 .
  | Verify using the multipole_threshold keyword.
  Defaulting to new monopole extrapolation.
  Density update method: automatic selection selected.
  Using density matrix based charge density update.
  Using density matrix based charge density update.
  Using packed matrix style: index .
  Geometry relaxation: A file "geometry.in.next_step" is written out by default after each step.
  | This file contains the geometry of the current relaxation step as well as
  | the current Hessian matrix needed to restart the relaxation algorithm.
  | If you do not want part or all of this information, use the keywords
  | "write_restart_geometry" or "hessian_to_restart_geometry" to switch the output off.
  Defaulting to use time-reversal symmetry for k-point grid.
------------------------------------------------------------


------------------------------------------------------------
          Reading geometry description geometry.in.
------------------------------------------------------------
  Input structure read successfully.
  The structure contains        6 atoms,  and a total of        148.000 electrons.

  Input geometry:
  | Unit cell:
  |        3.16000000        0.00000000        0.00000000
  |       -1.58000000        2.73664028        0.00000000
  |        0.00000000        0.00000000       12.30000000
  | Atomic structure:
  |       Atom                x [A]            y [A]            z [A]
  |    1: Species Mo            0.00000000        1.82442685        3.07500000
  |    2: Species Mo            1.58000000        0.91221343        9.22500000
  |    3: Species S             0.00000000        1.82442685       10.80555000
  |    4: Species S             1.58000000        0.91221343        4.65555000
  |    5: Species S             1.58000000        0.91221343        1.49445000
  |    6: Species S             0.00000000        1.82442685        7.64445000

  Lattice parameters for 3D lattice (in Angstroms) :     3.160000    3.160000   12.300000
  Angle(s) between unit vectors (in degrees)      :    90.000000   90.000000  120.000000

  |

  | The smallest distance between any two atoms is         2.41384996 AA.
  |
  | The first atom of this pair is atom number                      1 .
  | The second atom of this pair is atom number                     4 .
  | Wigner-Seitz cell of the first atom image          -1     1     0 .
  | (The Wigner-Seitz cell of the second atom is 0 0 0  by definition.)

  Quantities derived from the lattice vectors:
  | Reciprocal lattice vector 1:  1.988350  1.147974  0.000000
  | Reciprocal lattice vector 2: -0.000000  2.295949  0.000000
  | Reciprocal lattice vector 3:  0.000000  0.000000  0.510828
  | Unit cell volume                               :   0.106368E+03  A^3

  Range separation radius for Ewald summation (hartree_convergence_parameter):      3.71769546 bohr.

  Fractional coordinates:
                         L1                L2                L3
       atom_frac         0.33333333        0.66666667        0.25000000  Mo
       atom_frac         0.66666667        0.33333333        0.75000000  Mo
       atom_frac         0.33333333        0.66666667        0.87850000  S
       atom_frac         0.66666667        0.33333333        0.37850000  S
       atom_frac         0.66666667        0.33333333        0.12150000  S
       atom_frac         0.33333333        0.66666667        0.62150000  S

  Number of empty states per atom not set in control.in - providing a guess from actual geometry.
  | Total number of empty states used during s.c.f. cycle:       23
  If you use a very high smearing, use empty_states (per atom!) in control.in to increase this value.

  Structure-dependent array size parameters: 
  | Maximum number of distinct radial functions  :       35
  | Maximum number of basis functions            :      366
  | Number of Kohn-Sham states (occupied + empty):       97
------------------------------------------------------------

------------------------------------------------------------
          Preparing all fixed parts of the calculation.
------------------------------------------------------------
  Determining machine precision:
    2.225073858507201E-308
  Setting up grids for atomic and cluster calculations.

  Creating wave function, potential, and density for free atoms.

  Species: Mo

  List of occupied orbitals and eigenvalues:
    n    l              occ      energy [Ha]    energy [eV]
    1    0           2.0000      -745.344654    -20281.8600
    2    0           2.0000      -103.288246     -2810.6162
    3    0           2.0000       -17.516687      -476.6533
    4    0           2.0000        -2.358559       -64.1796
    5    0           1.0000        -0.145159        -3.9500
    2    1           6.0000       -92.308627     -2511.8455
    3    1           6.0000       -13.936005      -379.2180
    4    1           6.0000        -1.408138       -38.3174
    3    2          10.0000        -8.119011      -220.9295
    4    2           5.0000        -0.132984        -3.6187


  Species: S

  List of occupied orbitals and eigenvalues:
    n    l              occ      energy [Ha]    energy [eV]
    1    0           2.0000       -88.680731     -2413.1255
    2    0           2.0000        -7.781719      -211.7513
    3    0           2.0000        -0.633662       -17.2428
    2    1           6.0000        -5.751976      -156.5192
    3    1           4.0000        -0.257086        -6.9957

  Creating fixed part of basis set: Ionic, confined, hydrogenic.
 
  Mo                   ion:

  List of free ionic orbitals and eigenvalues:
    n    l      energy [Ha]    energy [eV]
    1    0      -746.048685    -20301.0176
    2    0      -103.980912     -2829.4646
    3    0       -18.206601      -495.4268
    4    0        -3.040545       -82.7374
    2    1       -93.001013     -2530.6863
    3    1       -14.625827      -397.9890
    4    1        -2.084855       -56.7318
    3    2        -8.808854      -239.7011
    4    2        -0.765435       -20.8285


  List of ionic basis orbitals and eigenvalues:
    n    l      energy [Ha]    energy [eV]    outer radius [A]
    5    1        -0.465587       -12.6693       5.456393
    5    0        -0.650331       -17.6964       5.390095

 
  Mo                   hydrogenic:
 
  List of hydrogenic basis orbitals: 
    n    l      effective z      eigenvalue [eV]  inner max. [A]     outer max. [A]     outer radius [A]   
    4    3         8.400000       -60.0010           1.009788           1.009788           4.487018
    3    2         2.800000       -11.8048           1.687401           1.687401           5.456393
    5    4        12.000000       -78.3687           1.100005           1.100005           4.432498
    4    3        12.400000      -130.7506           0.682864           0.682864           3.428897
    3    2         3.300000       -16.4532           1.439455           1.439455           5.456393
    6    5        17.200000      -111.8085           1.113535           1.113535           4.169676
    4    3         7.600000       -49.1164           1.113535           1.113535           4.828511
    3    1         3.000000       -13.5316           0.528251           2.102736           5.456393
    1    0         0.650000        -5.7375           0.810333           0.810333           5.456393
 
 
  S                    ion:

  List of free ionic orbitals and eigenvalues:
    n    l      energy [Ha]    energy [eV]
    1    0       -89.703778     -2440.9640
    2    0        -8.775428      -238.7916
    3    0        -1.470343       -40.0101
    2    1        -6.747660      -183.6132
    3    1        -1.048627       -28.5346


  List of ionic basis orbitals and eigenvalues:
    n    l      energy [Ha]    energy [eV]    outer radius [A]
    3    2        -0.495605       -13.4861       5.386362
    3    0        -1.470336       -40.0099       3.967934

 
  S                    hydrogenic:
 
  List of hydrogenic basis orbitals: 
    n    l      effective z      eigenvalue [eV]  inner max. [A]     outer max. [A]     outer radius [A]   
    2    1         1.800000       -11.0118           1.168531           1.168531           5.452614
    4    3         7.000000       -41.6672           1.212182           1.212182           5.066981
    4    2         6.200000       -32.6848           0.582121           1.814567           5.386362
    5    4        10.800000       -63.4785           1.227092           1.227092           4.766538
    4    1         4.900000       -20.2928           0.304525           2.524192           5.452614
    5    3        10.000000       -54.4226           0.641929           1.727969           5.320915
    1    0         0.800000        -8.7059           0.657818           0.657818           5.386362
 

  Adding cutoff potential to free-atom effective potential.
  Creating atomic-like basis functions for current effective potential.

  Species Mo                  :

  List of atomic basis orbitals and eigenvalues:
    n    l      energy [Ha]    energy [eV]    outer radius [A]
    1    0      -745.344654    -20281.8600       0.247552
    2    0      -103.288246     -2810.6162       0.682864
    3    0       -17.516687      -476.6533       1.626637
    4    0        -2.358559       -64.1796       4.220963
    5    0        -0.145159        -3.9500       5.456393
    2    1       -92.308627     -2511.8455       0.699766
    3    1       -13.936005      -379.2180       1.793761
    4    1        -1.408138       -38.3174       4.828511
    3    2        -8.119011      -220.9295       2.181285
    4    2        -0.132984        -3.6187       5.390095


  Species S                   :

  List of atomic basis orbitals and eigenvalues:
    n    l      energy [Ha]    energy [eV]    outer radius [A]
    1    0       -88.680731     -2413.1255       0.682391
    2    0        -7.781719      -211.7513       2.289014
    3    0        -0.633662       -17.2428       5.256262
    2    1        -5.751976      -156.5192       2.555240
    3    1        -0.257086        -6.9957       5.386362

  Assembling full basis from fixed parts.
  | Species Mo :   atomic orbital   1 s accepted.
  | Species Mo :   atomic orbital   2 s accepted.
  | Species Mo :   atomic orbital   3 s accepted.
  | Species Mo :   atomic orbital   4 s accepted.
  | Species Mo :    ionic orbital   5 s accepted.
  | Species Mo :   atomic orbital   5 s accepted.
  | Species Mo :    hydro orbital   1 s accepted.
  | Species Mo :   atomic orbital   2 p accepted.
  | Species Mo :   atomic orbital   3 p accepted.
  | Species Mo :   atomic orbital   4 p accepted.
  | Species Mo :    ionic orbital   5 p accepted.
  | Species Mo :    hydro orbital   3 p accepted.
  | Species Mo :   atomic orbital   3 d accepted.
  | Species Mo :   atomic orbital   4 d accepted.
  | Species Mo :    hydro orbital   3 d accepted.
  | Species Mo :    hydro orbital   3 d accepted.
  | Species Mo :    hydro orbital   4 f accepted.
  | Species Mo :    hydro orbital   4 f accepted.
  | Species Mo :    hydro orbital   4 f accepted.
  | Species Mo :    hydro orbital   5 g accepted.
  | Species Mo :    hydro orbital   6 h accepted.
  | Species S :   atomic orbital   1 s accepted.
  | Species S :   atomic orbital   2 s accepted.
  | Species S :    ionic orbital   3 s accepted.
  | Species S :   atomic orbital   3 s accepted.
  | Species S :    hydro orbital   1 s accepted.
  | Species S :   atomic orbital   2 p accepted.
  | Species S :   atomic orbital   3 p accepted.
  | Species S :    hydro orbital   2 p accepted.
  | Species S :    hydro orbital   4 p accepted.
  | Species S :    ionic orbital   3 d accepted.
  | Species S :    hydro orbital   4 d accepted.
  | Species S :    hydro orbital   4 f accepted.
  | Species S :    hydro orbital   5 f accepted.
  | Species S :    hydro orbital   5 g accepted.
 
  Basis size parameters after reduction:
  | Total number of radial functions:       35
  | Total number of basis functions :      366
 
  Per-task memory consumption for arrays in subroutine allocate_ext:
  |          12.876952MB.
  Testing on-site integration grid accuracy.
  |  Species  Function  <phi|h_atom|phi> (log., in eV)  <phi|h_atom|phi> (rad., in eV)
           1        1             -20281.8599610543             -20281.8584300616
           1        2              -2810.6161812280              -2810.6161551921
           1        3               -476.6533163555               -476.6533136395
           1        4                -64.1796433667                -64.1796426456
           1        5                 -3.3691762756                 -3.3691802887
           1        6                  4.4704608512                  4.4699102345
           1        7                 47.6285199283                 47.6283663304
           1        8              -2511.8455406047              -2511.8455385741
           1        9               -379.2179896350               -379.2179882338
           1       10                -38.3173891619                -38.3173886619
           1       11                  0.2493245095                  0.2492931069
           1       12                 12.9899978429                 12.9896957264
           1       13               -220.9295301098               -220.9295297081
           1       14                 -3.6195697699                 -3.6195754704
           1       15                  7.1428000922                  7.1426882355
           1       16                 20.1860643586                 20.1854440119
           1       17                 39.6800378350                 39.6800378704
           1       18                 41.9987405107                 41.9987406673
           1       19                 51.4938078473                 51.4938137886
           1       20                 50.2449608881                 50.2449608586
           1       21                 84.8920029004                 84.8920028797
           2       22              -2413.1254568977              -2413.1254096663
           2       23               -211.7513411281               -211.7513404762
           2       24                -16.9725280787                -16.9725279206
           2       25                  7.6024436204                  7.6024549059
           2       26                 48.5754986812                 48.5751292874
           2       27               -156.5192206929               -156.5192205451
           2       28                 -6.9959757887                 -6.9959777655
           2       29                  6.8896462808                  6.8895564741
           2       30                 27.2255287135                 27.2252601701
           2       31                  6.0214250550                  6.0214220200
           2       32                 19.6206468977                 19.6206494558
           2       33                 24.7008710786                 24.7008710738
           2       34                 58.2239314521                 58.2239319465
           2       35                 47.5292252001                 47.5292260486

  Preparing densities etc. for the partition functions (integrals / Hartree potential).

  Preparations completed.
  max(cpu_time)          :      0.456 s.
  Wall clock time (cpu1) :      0.453 s.
------------------------------------------------------------

------------------------------------------------------------
          Begin self-consistency loop: Initialization.

          Date     :  20191129, Time     :  104831.989
------------------------------------------------------------

  Initializing index lists of integration centers etc. from given atomic structure:
  Mapping all atomic coordinates to central unit cell.

  Initializing the k-points
          Using symmetry for reducing the k-points
  | k-points reduced from:     5832 to     2920
  | Number of k-points                             :      2920
  The eigenvectors in the calculations are COMPLEX.
  | K-points in task   0:        36
  | K-points in task   1:        37
  | K-points in task   2:        37
  | K-points in task   3:        37
  | K-points in task   4:        37
  | K-points in task   5:        37
  | K-points in task   6:        37
  | K-points in task   7:        37
  | K-points in task   8:        37
  | K-points in task   9:        37
  | K-points in task  10:        37
  | K-points in task  11:        37
  | K-points in task  12:        37
  | K-points in task  13:        37
  | K-points in task  14:        37
  | K-points in task  15:        37
  | K-points in task  16:        37
  | K-points in task  17:        37
  | K-points in task  18:        37
  | K-points in task  19:        37
  | K-points in task  20:        37
  | K-points in task  21:        37
  | K-points in task  22:        37
  | K-points in task  23:        37
  | K-points in task  24:        37
  | K-points in task  25:        37
  | K-points in task  26:        37
  | K-points in task  27:        37
  | K-points in task  28:        37
  | K-points in task  29:        37
  | K-points in task  30:        37
  | K-points in task  31:        37
  | K-points in task  32:        37
  | K-points in task  33:        37
  | K-points in task  34:        37
  | K-points in task  35:        37
  | K-points in task  36:        37
  | K-points in task  37:        37
  | K-points in task  38:        37
  | K-points in task  39:        37
  | K-points in task  40:        37
  | K-points in task  41:        36
  | K-points in task  42:        36
  | K-points in task  43:        36
  | K-points in task  44:        36
  | K-points in task  45:        36
  | K-points in task  46:        36
  | K-points in task  47:        36
  | K-points in task  48:        36
  | K-points in task  49:        36
  | K-points in task  50:        36
  | K-points in task  51:        36
  | K-points in task  52:        36
  | K-points in task  53:        36
  | K-points in task  54:        36
  | K-points in task  55:        36
  | K-points in task  56:        36
  | K-points in task  57:        36
  | K-points in task  58:        36
  | K-points in task  59:        36
  | K-points in task  60:        36
  | K-points in task  61:        36
  | K-points in task  62:        36
  | K-points in task  63:        36
  | K-points in task  64:        36
  | K-points in task  65:        36
  | K-points in task  66:        36
  | K-points in task  67:        36
  | K-points in task  68:        36
  | K-points in task  69:        36
  | K-points in task  70:        36
  | K-points in task  71:        36
  | K-points in task  72:        36
  | K-points in task  73:        36
  | K-points in task  74:        36
  | K-points in task  75:        36
  | K-points in task  76:        36
  | K-points in task  77:        36
  | K-points in task  78:        36
  | K-points in task  79:        36
  | Number of basis functions in the Hamiltonian integrals :     10422
  | Number of basis functions in a single unit cell        :       366
  | Number of centers in hartree potential         :      1352
  | Number of centers in hartree multipole         :       886
  | Number of centers in electron density summation:       618
  | Number of centers in basis integrals           :       696
  | Number of centers in integrals                 :       262
  | Number of centers in hamiltonian               :       618
  | Consuming       7938 KiB for k_phase.
  | Number of super-cells (origin) [n_cells]                     :        1125
  | Number of super-cells (after PM_index) [n_cells]             :         174
  | Number of super-cells in hamiltonian [n_cells_in_hamiltonian]:         174
  | Size of matrix packed + index [n_hamiltonian_matrix_size] :     2472571
  Initializing relaxation algorithms.
  Partitioning the integration grid into batches with parallel hashing+maxmin method.
  | Number of batches:     1836
  | Maximal batch size:     119
  | Minimal batch size:      49
  | Average batch size:      80.608
  | Standard deviation of batch sizes:      15.154

  Integration load balanced across    80 MPI tasks.
  Work distribution over tasks is as follows:
  Task     0 has       1814 integration points.
  Task     1 has       1907 integration points.
  Task     2 has       1834 integration points.
  Task     3 has       1816 integration points.
  Task     4 has       1904 integration points.
  Task     5 has       1905 integration points.
  Task     6 has       1904 integration points.
  Task     7 has       1814 integration points.
  Task     8 has       1896 integration points.
  Task     9 has       1837 integration points.
  Task    10 has       1906 integration points.
  Task    11 has       1889 integration points.
  Task    12 has       1903 integration points.
  Task    13 has       1812 integration points.
  Task    14 has       1865 integration points.
  Task    15 has       1861 integration points.
  Task    16 has       1832 integration points.
  Task    17 has       1834 integration points.
  Task    18 has       1905 integration points.
  Task    19 has       1813 integration points.
  Task    20 has       1813 integration points.
  Task    21 has       1867 integration points.
  Task    22 has       1828 integration points.
  Task    23 has       1862 integration points.
  Task    24 has       1858 integration points.
  Task    25 has       1831 integration points.
  Task    26 has       1906 integration points.
  Task    27 has       1820 integration points.
  Task    28 has       1861 integration points.
  Task    29 has       1814 integration points.
  Task    30 has       1863 integration points.
  Task    31 has       1822 integration points.
  Task    32 has       1908 integration points.
  Task    33 has       1905 integration points.
  Task    34 has       1824 integration points.
  Task    35 has       1908 integration points.
  Task    36 has       1906 integration points.
  Task    37 has       1816 integration points.
  Task    38 has       1819 integration points.
  Task    39 has       1819 integration points.
  Task    40 has       1866 integration points.
  Task    41 has       1909 integration points.
  Task    42 has       1816 integration points.
  Task    43 has       1814 integration points.
  Task    44 has       1812 integration points.
  Task    45 has       1904 integration points.
  Task    46 has       1812 integration points.
  Task    47 has       1862 integration points.
  Task    48 has       1813 integration points.
  Task    49 has       1813 integration points.
  Task    50 has       1827 integration points.
  Task    51 has       1837 integration points.
  Task    52 has       1815 integration points.
  Task    53 has       1840 integration points.
  Task    54 has       1815 integration points.
  Task    55 has       1890 integration points.
  Task    56 has       1831 integration points.
  Task    57 has       1829 integration points.
  Task    58 has       1833 integration points.
  Task    59 has       1834 integration points.
  Task    60 has       1893 integration points.
  Task    61 has       1816 integration points.
  Task    62 has       1835 integration points.
  Task    63 has       1832 integration points.
  Task    64 has       1819 integration points.
  Task    65 has       1836 integration points.
  Task    66 has       1825 integration points.
  Task    67 has       1862 integration points.
  Task    68 has       1846 integration points.
  Task    69 has       1837 integration points.
  Task    70 has       1838 integration points.
  Task    71 has       1865 integration points.
  Task    72 has       1834 integration points.
  Task    73 has       1819 integration points.
  Task    74 has       1864 integration points.
  Task    75 has       1828 integration points.
  Task    76 has       1839 integration points.
  Task    77 has       1907 integration points.
  Task    78 has       1827 integration points.
  Task    79 has       1901 integration points.
  Initializing partition tables, free-atom densities, potentials, etc. across the integration grid (initialize_grid_storage).
  | initialize_grid_storage: Actual outermost partition radius vs. multipole_radius_free
  | (-- VB: in principle, multipole_radius_free should be larger, hence this output)
  | Species        1: Confinement radius =              6.000000000000000 AA, multipole_radius_free =              6.016994434057369 AA.
  | Species        1: outer_partition_radius set to              6.016994434057369 AA .
  | Species        2: Confinement radius =              6.000000000000000 AA, multipole_radius_free =              6.012827091137924 AA.
  | Species        2: outer_partition_radius set to              6.012827091137924 AA .
  | Original list of interatomic distances with         696 x        696 entries is created.
  | Net number of integration points:   147996
  | of which are non-zero points    :   115578
  | Numerical average free-atom electrostatic potential    :    -18.25642459 eV
  Renormalizing the initial density to the exact electron count on the 3D integration grid.
  | Initial density: Formal number of electrons (from input files) :     148.0000000000
  | Integrated number of electrons on 3D grid     :     147.9998291670
  | Charge integration error                      :      -0.0001708330
  | Normalization factor for density and gradient :       1.0000011543
  Obtaining max. number of non-zero basis functions in each batch (get_n_compute_maxes).
  | Maximal number of non-zero basis functions:     2295 in task     0
  | Maximal number of non-zero basis functions:     2306 in task     1
  | Maximal number of non-zero basis functions:     2281 in task     2
  | Maximal number of non-zero basis functions:     2362 in task     3
  | Maximal number of non-zero basis functions:     2273 in task     4
  | Maximal number of non-zero basis functions:     2292 in task     5
  | Maximal number of non-zero basis functions:     2230 in task     6
  | Maximal number of non-zero basis functions:     2249 in task     7
  | Maximal number of non-zero basis functions:     2310 in task     8
  | Maximal number of non-zero basis functions:     2265 in task     9
  | Maximal number of non-zero basis functions:     2315 in task    10
  | Maximal number of non-zero basis functions:     2285 in task    11
  | Maximal number of non-zero basis functions:     2347 in task    12
  | Maximal number of non-zero basis functions:     2316 in task    13
  | Maximal number of non-zero basis functions:     2278 in task    14
  | Maximal number of non-zero basis functions:     2266 in task    15
  | Maximal number of non-zero basis functions:     2320 in task    16
  | Maximal number of non-zero basis functions:     2233 in task    17
  | Maximal number of non-zero basis functions:     2317 in task    18
  | Maximal number of non-zero basis functions:     2231 in task    19
  | Maximal number of non-zero basis functions:     2326 in task    20
  | Maximal number of non-zero basis functions:     2269 in task    21
  | Maximal number of non-zero basis functions:     2332 in task    22
  | Maximal number of non-zero basis functions:     2237 in task    23
  | Maximal number of non-zero basis functions:     2229 in task    24
  | Maximal number of non-zero basis functions:     2279 in task    25
  | Maximal number of non-zero basis functions:     2358 in task    26
  | Maximal number of non-zero basis functions:     2335 in task    27
  | Maximal number of non-zero basis functions:     2251 in task    28
  | Maximal number of non-zero basis functions:     2251 in task    29
  | Maximal number of non-zero basis functions:     2309 in task    30
  | Maximal number of non-zero basis functions:     2279 in task    31
  | Maximal number of non-zero basis functions:     2303 in task    32
  | Maximal number of non-zero basis functions:     2298 in task    33
  | Maximal number of non-zero basis functions:     2308 in task    34
  | Maximal number of non-zero basis functions:     2266 in task    35
  | Maximal number of non-zero basis functions:     2323 in task    36
  | Maximal number of non-zero basis functions:     2319 in task    37
  | Maximal number of non-zero basis functions:     2359 in task    38
  | Maximal number of non-zero basis functions:     2318 in task    39
  | Maximal number of non-zero basis functions:     2225 in task    40
  | Maximal number of non-zero basis functions:     2232 in task    41
  | Maximal number of non-zero basis functions:     2267 in task    42
  | Maximal number of non-zero basis functions:     2249 in task    43
  | Maximal number of non-zero basis functions:     2312 in task    44
  | Maximal number of non-zero basis functions:     2266 in task    45
  | Maximal number of non-zero basis functions:     2338 in task    46
  | Maximal number of non-zero basis functions:     2310 in task    47
  | Maximal number of non-zero basis functions:     2255 in task    48
  | Maximal number of non-zero basis functions:     2259 in task    49
  | Maximal number of non-zero basis functions:     2239 in task    50
  | Maximal number of non-zero basis functions:     2286 in task    51
  | Maximal number of non-zero basis functions:     2310 in task    52
  | Maximal number of non-zero basis functions:     2371 in task    53
  | Maximal number of non-zero basis functions:     2279 in task    54
  | Maximal number of non-zero basis functions:     2312 in task    55
  | Maximal number of non-zero basis functions:     2333 in task    56
  | Maximal number of non-zero basis functions:     2295 in task    57
  | Maximal number of non-zero basis functions:     2263 in task    58
  | Maximal number of non-zero basis functions:     2299 in task    59
  | Maximal number of non-zero basis functions:     2262 in task    60
  | Maximal number of non-zero basis functions:     2326 in task    61
  | Maximal number of non-zero basis functions:     2305 in task    62
  | Maximal number of non-zero basis functions:     2256 in task    63
  | Maximal number of non-zero basis functions:     2267 in task    64
  | Maximal number of non-zero basis functions:     2309 in task    65
  | Maximal number of non-zero basis functions:     2263 in task    66
  | Maximal number of non-zero basis functions:     2275 in task    67
  | Maximal number of non-zero basis functions:     2317 in task    68
  | Maximal number of non-zero basis functions:     2245 in task    69
  | Maximal number of non-zero basis functions:     2346 in task    70
  | Maximal number of non-zero basis functions:     2266 in task    71
  | Maximal number of non-zero basis functions:     2255 in task    72
  | Maximal number of non-zero basis functions:     2267 in task    73
  | Maximal number of non-zero basis functions:     2264 in task    74
  | Maximal number of non-zero basis functions:     2255 in task    75
  | Maximal number of non-zero basis functions:     2276 in task    76
  | Maximal number of non-zero basis functions:     2339 in task    77
  | Maximal number of non-zero basis functions:     2279 in task    78
  | Maximal number of non-zero basis functions:     2200 in task    79
  Allocating       20.449 MB for KS_eigenvector_complex
  Integrating Hamiltonian matrix: batch-based integration.
  Time summed over all CPUs for integration: real work      115.518 s, elapsed      123.486 s
  Integrating overlap matrix.
  Time summed over all CPUs for integration: real work       91.615 s, elapsed       98.994 s
  Decreasing sparse matrix size:
   Tolerance:  9.999999824516700E-014
   Hamiltonian matrix
  | Array has  1993848 nonzero elements out of  2472571 elements
  | Sparsity factor is 0.194
   Overlap matrix
  | Array has  1846336 nonzero elements out of  2472571 elements
  | Sparsity factor is 0.253
  New size of hamiltonian matrix:     2001129

  Updating Kohn-Sham eigenvalues and eigenvectors using ELSI and the ELPA eigensolver.
  Overlap matrix is nonsingular
  | Lowest eigenvalue of overlap  :  0.32E-04
  | Highest eigenvalue of overlap :  0.11E+02
  Finished singularity check of overlap matrix
  | Time :     0.022 s
  Finished Cholesky decomposition
  | Time :     0.007 s
  Finished transformation to standard eigenproblem
  | Time :     0.011 s
  Starting LAPACK eigensolver
  Finished solving standard eigenproblem
  | Time :     0.025 s
  Finished back-transformation of eigenvectors
  | Time :     0.002 s

  Obtaining occupation numbers and chemical potential using ELSI.
  | Chemical potential (Fermi level):    -5.26260778eV
  Writing Kohn-Sham eigenvalues.
  K-point:       1 at    0.000000    0.000000    0.000000 (in units of recip. lattice)

  State    Occupation    Eigenvalue [Ha]    Eigenvalue [eV]
      1       2.00000        -745.362499       -20282.34556
      2       2.00000        -745.362499       -20282.34556
      3       2.00000        -103.306618        -2811.11610
      4       2.00000        -103.306618        -2811.11610
      5       2.00000         -92.326988        -2512.34516
      6       2.00000         -92.326988        -2512.34516
      7       2.00000         -92.326988        -2512.34516
      8       2.00000         -92.326988        -2512.34516
      9       2.00000         -92.326972        -2512.34473
     10       2.00000         -92.326972        -2512.34472
     11       2.00000         -88.712602        -2413.99272
     12       2.00000         -88.712602        -2413.99272
     13       2.00000         -88.712602        -2413.99272
     14       2.00000         -88.712602        -2413.99272
     15       2.00000         -17.536734         -477.19881
     16       2.00000         -17.536734         -477.19881
     17       2.00000         -13.956162         -379.76649
     18       2.00000         -13.956162         -379.76649
     19       2.00000         -13.956162         -379.76649
     20       2.00000         -13.956162         -379.76649
     21       2.00000         -13.956024         -379.76273
     22       2.00000         -13.956024         -379.76273
     23       2.00000          -8.139126         -221.47690
     24       2.00000          -8.139126         -221.47690
     25       2.00000          -8.139126         -221.47689
     26       2.00000          -8.139126         -221.47689
     27       2.00000          -8.139052         -221.47488
     28       2.00000          -8.139052         -221.47488
     29       2.00000          -8.139052         -221.47488
     30       2.00000          -8.139052         -221.47488
     31       2.00000          -8.138980         -221.47292
     32       2.00000          -8.138980         -221.47292
     33       2.00000          -7.816513         -212.69813
     34       2.00000          -7.816513         -212.69813
     35       2.00000          -7.816512         -212.69813
     36       2.00000          -7.816512         -212.69812
     37       2.00000          -5.786755         -157.46562
     38       2.00000          -5.786755         -157.46562
     39       2.00000          -5.786755         -157.46561
     40       2.00000          -5.786755         -157.46561
     41       2.00000          -5.786268         -157.45236
     42       2.00000          -5.786268         -157.45236
     43       2.00000          -5.786267         -157.45234
     44       2.00000          -5.786267         -157.45234
     45       2.00000          -5.786267         -157.45234
     46       2.00000          -5.786267         -157.45234
     47       2.00000          -5.786267         -157.45234
     48       2.00000          -5.786267         -157.45234
     49       2.00000          -2.394941          -65.16967
     50       2.00000          -2.394941          -65.16967
     51       2.00000          -1.455305          -39.60087
     52       2.00000          -1.455299          -39.60070
     53       2.00000          -1.444319          -39.30193
     54       2.00000          -1.444319          -39.30193
     55       2.00000          -1.444319          -39.30193
     56       2.00000          -1.444319          -39.30193
     57       2.00000          -0.785195          -21.36624
     58       2.00000          -0.775471          -21.10163
     59       2.00000          -0.740352          -20.14600
     60       2.00000          -0.724659          -19.71897
     61       2.00000          -0.475554          -12.94047
     62       2.00000          -0.432468          -11.76804
     63       2.00000          -0.362884           -9.87458
     64       2.00000          -0.325250           -8.85051
     65       2.00000          -0.325250           -8.85050
     66       2.00000          -0.324385           -8.82697
     67       2.00000          -0.324385           -8.82696
     68       2.00000          -0.289440           -7.87607
     69       2.00000          -0.289440           -7.87605
     70       2.00000          -0.286951           -7.80834
     71       2.00000          -0.286950           -7.80832
     72       2.00000          -0.278682           -7.58333
     73       2.00000          -0.236609           -6.43846
     74       2.00000          -0.194590           -5.29505
     75       0.00000          -0.126255           -3.43556
     76       0.00000          -0.126254           -3.43554
     77       0.00000          -0.125523           -3.41566
     78       0.00000          -0.125523           -3.41564
     79       0.00000          -0.125310           -3.40987
     80       0.00000          -0.125310           -3.40985
     81       0.00000          -0.119796           -3.25982
     82       0.00000          -0.119795           -3.25980
     83       0.00000          -0.019988           -0.54390
     84       0.00000          -0.017897           -0.48702
     85       0.00000           0.068404            1.86136
     86       0.00000           0.087013            2.36775
     87       0.00000           0.103326            2.81164
     88       0.00000           0.140586            3.82555
     89       0.00000           0.140587            3.82556
     90       0.00000           0.156194            4.25025
     91       0.00000           0.156194            4.25026
     92       0.00000           0.158834            4.32209
     93       0.00000           0.203442            5.53593
     94       0.00000           0.203443            5.53598
     95       0.00000           0.212053            5.77027
     96       0.00000           0.234789            6.38892
     97       0.00000           0.234790            6.38895

  What follows are estimated values for band gap, HOMO, LUMO, etc.
  | They are estimated on a discrete k-point grid and not necessarily exact.
  | For converged numbers, create a DOS and/or band structure plot on a denser k-grid.

  Highest occupied state (VBM) at     -5.29505144 eV (relative to internal zero)
  | Occupation number:      1.99999553
  | K-point:       1 at    0.000000    0.000000    0.000000 (in units of recip. lattice)

  Lowest unoccupied state (CBM) at    -4.52396633 eV (relative to internal zero)
  | Occupation number:      0.00000000
  | K-point:    1583 at    0.333333    0.833333    0.000000 (in units of recip. lattice)

  ESTIMATED overall HOMO-LUMO gap:      0.77108510 eV between HOMO at k-point 1 and LUMO at k-point 1583
  | This appears to be an indirect band gap.
  | Smallest direct gap :      1.85948868 eV for k_point 1 at    0.333333    0.833333    0.000000 (in units of recip. lattice)
  The gap value is above 0.2 eV. Unless you are using a very sparse k-point grid,
  this system is most likely an insulator or a semiconductor.
  Calculating total energy contributions from superposition of free atom densities.

  Total energy components:
  | Sum of eigenvalues            :       -5856.65090118 Ha     -159367.57955432 eV
  | XC energy correction          :        -351.36781271 Ha       -9561.20465265 eV
  | XC potential correction       :         456.86159110 Ha       12431.83641860 eV
  | Free-atom electrostatic energy:       -4024.01276393 Ha     -109498.95855226 eV
  | Hartree energy correction     :           0.00000000 Ha           0.00000000 eV
  | Entropy correction            :          -0.00000000 Ha          -0.00000000 eV
  | ---------------------------
  | Total energy                  :       -9775.16988673 Ha     -265995.90634062 eV
  | Total energy, T -> 0          :       -9775.16988673 Ha     -265995.90634062 eV  <-- do not rely on this value for anything but (periodic) metals
  | Electronic free energy        :       -9775.16988673 Ha     -265995.90634062 eV

  Derived energy quantities:
  | Kinetic energy                :       10036.74991946 Ha      273113.86118879 eV
  | Electrostatic energy          :      -19460.55199348 Ha     -529548.56287676 eV
  | Energy correction for multipole
  | error in Hartree potential    :           0.00000000 Ha           0.00000000 eV
  | Sum of eigenvalues per atom                           :      -26561.26325905 eV
  | Total energy (T->0) per atom                          :      -44332.65105677 eV  <-- do not rely on this value for anything but (periodic) metals
  | Electronic free energy per atom                       :      -44332.65105677 eV
  Initialize hartree_potential_storage
  Max. number of atoms included in rho_multipole:            6

  End scf initialization - timings             :  max(cpu_time)    wall_clock(cpu1)
  | Time for scf. initialization               :        7.464 s           7.453 s
  | Boundary condition initialization          :        0.244 s           0.241 s
  | Relaxation initialization                  :        0.004 s           0.002 s
  | Integration                                :        2.908 s           2.905 s
  | Solution of K.-S. eqns.                    :        3.876 s           3.888 s
  | Grid partitioning                          :        0.148 s           0.143 s
  | Preloading free-atom quantities on grid    :        0.012 s           0.012 s
  | Free-atom superposition energy             :        0.020 s           0.017 s
  | Total energy evaluation                    :        0.008 s           0.008 s

  Partial memory accounting:
  | Current value for overall tracked memory usage on task 0  :          60.473 MB
  | Peak value for overall tracked memory usage on task 0     :         118.647 MB after allocating wave
  | Largest tracked array allocation on task 0 so far         :          42.136 MB  when allocating hamiltonian_shell
  Note:  These values currently only include a subset of arrays which are explicitly tracked.
  The "true" memory usage will be greater.
------------------------------------------------------------

------------------------------------------------------------
          Begin self-consistency iteration #    1

  Date     :  20191129, Time     :  104839.442
------------------------------------------------------------
  Evaluating new KS density using the density matrix
  Evaluating density matrix
  Time summed over all CPUs for getting density from density matrix: real work      232.503 s, elapsed      248.422 s
  Integration grid: deviation in total charge (<rho> - N_e) =  -8.195968E-10
  Pulay mixing of updated and previous charge densities.

  Evaluating partitioned Hartree potential by multipole expansion.
  | Analytical far-field extrapolation by fixed multipoles:
  | Hartree multipole sum: apparent total charge =  -0.214077E-03
  Summing up the Hartree potential.
  | Estimated reciprocal-space cutoff momentum G_max:         2.63019706 bohr^-1 .
  | Reciprocal lattice points for long-range Hartree potential:     228
  Time summed over all CPUs for potential: real work       11.454 s, elapsed       12.265 s
  | RMS charge density error from multipole expansion :   0.151917E-03
  | Average real-space part of the electrostatic potential :     -0.00149148 eV

  Integrating Hamiltonian matrix: batch-based integration.
  Time summed over all CPUs for integration: real work      111.031 s, elapsed      118.622 s

  Updating Kohn-Sham eigenvalues and eigenvectors using ELSI and the ELPA eigensolver.
  Finished Cholesky decomposition
  | Time :     0.006 s
  Finished transformation to standard eigenproblem
  | Time :     0.011 s
  Starting LAPACK eigensolver
  Finished solving standard eigenproblem
  | Time :     0.025 s
  Finished back-transformation of eigenvectors
  | Time :     0.002 s

  Obtaining occupation numbers and chemical potential using ELSI.
  | Chemical potential (Fermi level):    -5.29754593eV
  Writing Kohn-Sham eigenvalues.
  K-point:       1 at    0.000000    0.000000    0.000000 (in units of recip. lattice)

  State    Occupation    Eigenvalue [Ha]    Eigenvalue [eV]
      1       2.00000        -745.369889       -20282.54664
      2       2.00000        -745.369889       -20282.54664
      3       2.00000        -103.313990        -2811.31672
      4       2.00000        -103.313990        -2811.31672
      5       2.00000         -92.334402        -2512.54692
      6       2.00000         -92.334402        -2512.54692
      7       2.00000         -92.334402        -2512.54692
      8       2.00000         -92.334402        -2512.54692
      9       2.00000         -92.334390        -2512.54659
     10       2.00000         -92.334390        -2512.54659
     11       2.00000         -88.709814        -2413.91686
     12       2.00000         -88.709814        -2413.91686
     13       2.00000         -88.709814        -2413.91686
     14       2.00000         -88.709814        -2413.91686
     15       2.00000         -17.543006         -477.36948
     16       2.00000         -17.543006         -477.36948
     17       2.00000         -13.962430         -379.93706
     18       2.00000         -13.962430         -379.93706
     19       2.00000         -13.962430         -379.93706
     20       2.00000         -13.962430         -379.93706
     21       2.00000         -13.962305         -379.93364
     22       2.00000         -13.962305         -379.93364
     23       2.00000          -8.145483         -221.64986
     24       2.00000          -8.145483         -221.64986
     25       2.00000          -8.145483         -221.64986
     26       2.00000          -8.145483         -221.64986
     27       2.00000          -8.145425         -221.64828
     28       2.00000          -8.145425         -221.64828
     29       2.00000          -8.145425         -221.64828
     30       2.00000          -8.145425         -221.64828
     31       2.00000          -8.145340         -221.64599
     32       2.00000          -8.145340         -221.64599
     33       2.00000          -7.814350         -212.63929
     34       2.00000          -7.814350         -212.63929
     35       2.00000          -7.814350         -212.63929
     36       2.00000          -7.814350         -212.63929
     37       2.00000          -5.784515         -157.40465
     38       2.00000          -5.784514         -157.40465
     39       2.00000          -5.784514         -157.40464
     40       2.00000          -5.784514         -157.40464
     41       2.00000          -5.784064         -157.39239
     42       2.00000          -5.784064         -157.39239
     43       2.00000          -5.784063         -157.39237
     44       2.00000          -5.784063         -157.39237
     45       2.00000          -5.784063         -157.39237
     46       2.00000          -5.784063         -157.39237
     47       2.00000          -5.784063         -157.39237
     48       2.00000          -5.784063         -157.39237
     49       2.00000          -2.399262          -65.28724
     50       2.00000          -2.399262          -65.28724
     51       2.00000          -1.459113          -39.70450
     52       2.00000          -1.459108          -39.70434
     53       2.00000          -1.448245          -39.40876
     54       2.00000          -1.448245          -39.40876
     55       2.00000          -1.448245          -39.40876
     56       2.00000          -1.448245          -39.40876
     57       2.00000          -0.784431          -21.34545
     58       2.00000          -0.774699          -21.08064
     59       2.00000          -0.739553          -20.12427
     60       2.00000          -0.723826          -19.69631
     61       2.00000          -0.475405          -12.93643
     62       2.00000          -0.432523          -11.76955
     63       2.00000          -0.362193           -9.85578
     64       2.00000          -0.325787           -8.86512
     65       2.00000          -0.325787           -8.86511
     66       2.00000          -0.324945           -8.84221
     67       2.00000          -0.324945           -8.84219
     68       2.00000          -0.289603           -7.88051
     69       2.00000          -0.289603           -7.88049
     70       2.00000          -0.287148           -7.81370
     71       2.00000          -0.287147           -7.81368
     72       2.00000          -0.277867           -7.56114
     73       2.00000          -0.237980           -6.47577
     74       2.00000          -0.195874           -5.32999
     75       0.00000          -0.126887           -3.45277
     76       0.00000          -0.126886           -3.45274
     77       0.00000          -0.126484           -3.44181
     78       0.00000          -0.126484           -3.44179
     79       0.00000          -0.126340           -3.43789
     80       0.00000          -0.126339           -3.43786
     81       0.00000          -0.120424           -3.27691
     82       0.00000          -0.120424           -3.27689
     83       0.00000          -0.019961           -0.54317
     84       0.00000          -0.017797           -0.48427
     85       0.00000           0.068897            1.87479
     86       0.00000           0.087539            2.38207
     87       0.00000           0.103214            2.80859
     88       0.00000           0.140901            3.83410
     89       0.00000           0.140901            3.83412
     90       0.00000           0.156480            4.25805
     91       0.00000           0.156481            4.25806
     92       0.00000           0.159409            4.33774
     93       0.00000           0.203798            5.54564
     94       0.00000           0.203800            5.54569
     95       0.00000           0.211504            5.75531
     96       0.00000           0.234941            6.39306
     97       0.00000           0.234942            6.39309

  What follows are estimated values for band gap, HOMO, LUMO, etc.
  | They are estimated on a discrete k-point grid and not necessarily exact.
  | For converged numbers, create a DOS and/or band structure plot on a denser k-grid.

  Highest occupied state (VBM) at     -5.32999371 eV (relative to internal zero)
  | Occupation number:      1.99999554
  | K-point:       1 at    0.000000    0.000000    0.000000 (in units of recip. lattice)

  Lowest unoccupied state (CBM) at    -4.55483291 eV (relative to internal zero)
  | Occupation number:      0.00000000
  | K-point:    1583 at    0.333333    0.833333    0.000000 (in units of recip. lattice)

  ESTIMATED overall HOMO-LUMO gap:      0.77516080 eV between HOMO at k-point 1 and LUMO at k-point 1583
  | This appears to be an indirect band gap.
  | Smallest direct gap :      1.87722766 eV for k_point 1 at    0.333333    0.833333    0.000000 (in units of recip. lattice)
  The gap value is above 0.2 eV. Unless you are using a very sparse k-point grid,
  this system is most likely an insulator or a semiconductor.

  Total energy components:
  | Sum of eigenvalues            :       -5856.99118753 Ha     -159376.83921695 eV
  | XC energy correction          :        -351.35873755 Ha       -9560.95770481 eV
  | XC potential correction       :         456.84962129 Ha       12431.51070370 eV
  | Free-atom electrostatic energy:       -4024.01276393 Ha     -109498.95855226 eV
  | Hartree energy correction     :           0.35294320 Ha           9.60407317 eV
  | Entropy correction            :          -0.00000000 Ha          -0.00000000 eV
  | ---------------------------
  | Total energy                  :       -9775.16012451 Ha     -265995.64069715 eV
  | Total energy, T -> 0          :       -9775.16012451 Ha     -265995.64069715 eV  <-- do not rely on this value for anything but (periodic) metals
  | Electronic free energy        :       -9775.16012451 Ha     -265995.64069715 eV

  Derived energy quantities:
  | Kinetic energy                :       10036.67112165 Ha      273111.71699131 eV
  | Electrostatic energy          :      -19460.47250862 Ha     -529546.39998365 eV
  | Energy correction for multipole
  | error in Hartree potential    :          -0.00006445 Ha          -0.00175388 eV
  | Sum of eigenvalues per atom                           :      -26562.80653616 eV
  | Total energy (T->0) per atom                          :      -44332.60678286 eV  <-- do not rely on this value for anything but (periodic) metals
  | Electronic free energy per atom                       :      -44332.60678286 eV

  Self-consistency convergence accuracy:
  | Change of charge density      :  0.3939E+00
  | Change of sum of eigenvalues  : -0.9260E+01 eV
  | Change of total energy        :  0.2656E+00 eV

  End self-consistency iteration #     1       :  max(cpu_time)    wall_clock(cpu1)
  | Time for this iteration                    :        8.864 s           8.855 s
  | Charge density update                      :        3.792 s           3.785 s
  | Density mixing & preconditioning           :        0.100 s           0.098 s
  | Hartree multipole update                   :        0.004 s           0.002 s
  | Hartree multipole summation                :        0.168 s           0.163 s
  | Integration                                :        1.536 s           1.533 s
  | Solution of K.-S. eqns.                    :        3.260 s           3.264 s
  | Total energy evaluation                    :        0.008 s           0.008 s

  Partial memory accounting:
  | Current value for overall tracked memory usage on task 0  :          60.473 MB
  | Peak value for overall tracked memory usage on task 0     :         118.647 MB after allocating wave
  | Largest tracked array allocation on task 0 so far         :          42.136 MB  when allocating hamiltonian_shell
  Note:  These values currently only include a subset of arrays which are explicitly tracked.
  The "true" memory usage will be greater.
[...]
  | Sum of eigenvalues per atom                           :      -26588.16913545 eV
  | Total energy (T->0) per atom                          :      -44332.61495212 eV  <-- do not rely on this value for anything but (periodic) metals
  | Electronic free energy per atom                       :      -44332.61495212 eV

  atomic forces [eV/Ang]:
  -----------------------
  atom #    1
   Hellmann-Feynman              : -0.361953E-01  0.217934E-01 -0.312041E-02
   Ionic forces                  :  0.000000E+00  0.000000E+00  0.000000E+00
   Multipole                     :  0.178910E-03 -0.462783E-03  0.152372E-04
   Pulay + GGA                   :  0.267322E-01 -0.159044E-01  0.232737E-02
   Van der Waals                 :  0.289068E-03 -0.176907E-03 -0.796219E-06
   ----------------------------------------------------------------
   Total forces(   1)            : -0.899519E-02  0.524937E-02 -0.778601E-03
  atom #    2
   Hellmann-Feynman              :  0.362266E-01 -0.218014E-01  0.292567E-02
   Ionic forces                  :  0.000000E+00  0.000000E+00  0.000000E+00
   Multipole                     : -0.179163E-03  0.462847E-03 -0.127246E-04
   Pulay + GGA                   : -0.267548E-01  0.159101E-01 -0.222966E-02
   Van der Waals                 : -0.289073E-03  0.176909E-03 -0.929886E-07
   ----------------------------------------------------------------
   Total forces(   2)            :  0.900356E-02 -0.525150E-02  0.683194E-03
  atom #    3
   Hellmann-Feynman              : -0.142407E-02  0.778572E-04  0.205928E+02
   Ionic forces                  :  0.000000E+00  0.000000E+00  0.000000E+00
   Multipole                     : -0.117295E-04  0.346213E-04  0.597264E-01
   Pulay + GGA                   : -0.359848E-02  0.297919E-02 -0.207656E+02
   Van der Waals                 :  0.150173E-03 -0.909940E-04  0.109378E+00
   ----------------------------------------------------------------
   Total forces(   3)            : -0.488410E-02  0.300067E-02 -0.369542E-02
  atom #    4
   Hellmann-Feynman              :  0.142384E-02 -0.687640E-04  0.205925E+02
   Ionic forces                  :  0.000000E+00  0.000000E+00  0.000000E+00
   Multipole                     :  0.117187E-04 -0.345371E-04  0.597266E-01
   Pulay + GGA                   :  0.359564E-02 -0.298640E-02 -0.207649E+02
   Van der Waals                 : -0.150194E-03  0.910064E-04  0.109445E+00
   ----------------------------------------------------------------
   Total forces(   4)            :  0.488101E-02 -0.299869E-02 -0.319078E-02
  atom #    5
   Hellmann-Feynman              :  0.142552E-02 -0.779029E-04 -0.205927E+02
   Ionic forces                  :  0.000000E+00  0.000000E+00  0.000000E+00
   Multipole                     :  0.117466E-04 -0.346187E-04 -0.597261E-01
   Pulay + GGA                   :  0.360088E-02 -0.297863E-02  0.207656E+02
   Van der Waals                 : -0.150172E-03  0.909927E-04 -0.109378E+00
   ----------------------------------------------------------------
   Total forces(   5)            :  0.488797E-02 -0.300016E-02  0.376569E-02
  atom #    6
   Hellmann-Feynman              : -0.142646E-02  0.690748E-04 -0.205925E+02
   Ionic forces                  :  0.000000E+00  0.000000E+00  0.000000E+00
   Multipole                     : -0.117689E-04  0.345439E-04 -0.597265E-01
   Pulay + GGA                   : -0.360481E-02  0.298770E-02  0.207649E+02
   Van der Waals                 :  0.150198E-03 -0.910072E-04 -0.109445E+00
   ----------------------------------------------------------------
   Total forces(   6)            : -0.489284E-02  0.300031E-02  0.317187E-02


  Analytical stress tensor components [eV]         xx                  yy                  zz                  xy                  xz                  yz
  -----------------------------------------------------------------------------------------------------------------------------------------------------------
    Nuclear Hellmann-Feynman      :    -0.7149359538E+02   -0.7145124258E+02   -0.5264598905E+02    0.2873658112E-01   -0.3870947192E-06   -0.8189798258E-05
    Multipole Hellmann-Feynman    :    -0.2024184754E+03   -0.2023393509E+03   -0.1835675145E+03    0.6811858194E-01   -0.1069802002E-05   -0.1164354919E-04
    On-site Multipole corrections :    -0.1145499591E+01   -0.1146261875E+01   -0.1145682112E+01   -0.1538404535E-06   -0.6651188946E-10    0.6187152508E-11
    Strain deriv. of the orbitals :     0.2728054962E+03    0.2726916525E+03    0.2360057591E+03   -0.8930556303E-01    0.2246280291E-05    0.1471278972E-04
    vdW correction   :     0.2256987858E+01    0.2258403255E+01    0.1411245585E+01    0.9988162339E-03    0.7655447186E-07   -0.4478736589E-07
  -----------------------------------------------------------------------------------------------------------------------------------------------------------
  Sum of all contributions        :     0.4913651478E-02    0.1320033147E-01    0.5781904014E-01    0.8548262432E-02    0.8658715302E-06   -0.5165338907E-05

  +-------------------------------------------------------------------+
  |              Analytical stress tensor - Symmetrized               |
  |                  Cartesian components [eV/A**3]                   |
  +-------------------------------------------------------------------+
  |                x                y                z                |
  |                                                                   |
  |  x         0.00004649       0.00008089       0.00000001           |
  |  y         0.00008089       0.00012491      -0.00000005           |
  |  z         0.00000001      -0.00000005       0.00054710           |
  |                                                                   |
  |  Pressure:      -0.00023950   [eV/A**3]                           |
  |                                                                   |
  +-------------------------------------------------------------------+

 * Warning: Stress tensor is anisotropic. Be aware that pressure is an isotropic quantity.

  Timings for VdW correction (Tkatchenko-Scheffler 2009 or later):
  | CPU time:       12.008 s, Wall clock time:       11.999 s.
  Removing unitary transformations (pure translations, rotations) from forces on atoms.
  Atomic forces before filtering:
  | Net force on center of mass :   0.402205E-06 -0.421622E-08 -0.440519E-04 eV/A
  Removing unitary transformations (rotations) from forces on lattice.
  Lattice forces before filtering:
  | Net torque relative to origin:   0.181190E-20  0.202319E-20 -0.590053E-17 eV
  Atomic forces after filtering:
  | Net force on center of mass :  -0.209070E-17  0.348449E-18  0.000000E+00 eV/A
  Lattice forces after filtering:
  | Net torque relative to origin:   0.181190E-20  0.202319E-20 -0.590053E-17 eV

  Energy and forces in a compact form:
  | Total energy uncorrected      :         -0.265995689712739E+06 eV
  | Total energy corrected        :         -0.265995689712739E+06 eV  <-- do not rely on this value for anything but (periodic) metals
  | Electronic free energy        :         -0.265995689712739E+06 eV
  Total atomic forces (unitary forces cleaned) [eV/Ang]:
  |   1         -0.899525952275422E-02          0.524936790272694E-02         -0.771258556113297E-03
  |   2          0.900349054856006E-02         -0.525150155257316E-02          0.690535845875735E-03
  |   3         -0.488417078117781E-02          0.300067510760954E-02         -0.368807678276397E-02
  |   4          0.488093926070595E-02         -0.299869380738835E-02         -0.318344011111797E-02
  |   5          0.488790493142740E-02         -0.300015525665304E-02          0.377302945215236E-02
  |   6         -0.489290443676138E-02          0.300030760627806E-02          0.317921015196713E-02

  ------------------------------------ 
  Start decomposition of the XC Energy 
  ------------------------------------ 
  X and C from original XC functional choice 
  Hartree-Fock Energy :          0.000000000 Ha              0.000000000 eV
  X Energy            :       -344.255732668 Ha          -9367.675107955 eV
  C Energy            :         -6.979313466 Ha           -189.916782257 eV
  Total XC Energy     :       -351.235046133 Ha          -9557.591890212 eV
  ------------------------------------ 
  LDA X and C from self-consistent density 
  X Energy LDA        :       -325.185225793 Ha          -8848.740212782 eV
  C Energy LDA        :        -12.823946536 Ha           -348.957340008 eV
  ------------------------------------ 
  End decomposition of the XC Energy 
  ------------------------------------ 

------------------------------------------------------------
  Relaxation / MD: End force evaluation.       :  max(cpu_time)    wall_clock(cpu1)
  | Time for this force evaluation             :      218.072 s         219.115 s

------------------------------------------------------------
  Geometry optimization: Attempting to predict improved coordinates.

  +-------------------------------------------------------------------+
  | Generalized derivatives on lattice vectors [eV/A]                 |
  +-------------------------------------------------------------------+
  |lattice_vector       0.00312668       0.00513320      -0.00000067  |
  |lattice_vector       0.00313365       0.00483903      -0.00000189  |
  |lattice_vector       0.00000007      -0.00000042       0.00470116  |
  +-------------------------------------------------------------------+
  | Forces on lattice vectors cleaned from atomic contributions [eV/A]|
  +-------------------------------------------------------------------+
  |lattice_vector       0.00939053      -0.01263501       0.00085409  |
  |lattice_vector      -0.01565088       0.00266274      -0.00085158  |
  |lattice_vector      -0.00038707       0.00037492      -0.00284125  |
  +-------------------------------------------------------------------+
  | Projected forces for shape relaxation  [eV/A]                     |
  +-------------------------------------------------------------------+
  |lattice_vector       0.00939053       0.00000000      -0.00000000  |
  |lattice_vector      -0.00506572       0.00877408      -0.00000000  |
  |lattice_vector      -0.00000000       0.00000000      -0.00284125  |
  +-------------------------------------------------------------------+
  Removing unitary transformations (pure translations, rotations) from forces on atoms.
  Atomic forces before filtering:
  | Net force on center of mass :  -0.209070E-17  0.348449E-18  0.000000E+00 eV/A
  Removing unitary transformations (rotations) from forces on lattice.
  Lattice forces before filtering:
  | Net torque relative to origin:   0.000000E+00  0.000000E+00  0.000000E+00 eV
  Atomic forces after filtering:
  | Net force on center of mass :   0.696899E-18  0.348449E-18  0.000000E+00 eV/A
  Lattice forces after filtering:
  | Net torque relative to origin:   0.000000E+00  0.000000E+00  0.000000E+00 eV
  || Forces on lattice vectors || =   0.939053E-02 eV/A.
  Net remaining forces (excluding translations, rotations) in present geometry:
  Maximum force component is  0.939053E-02 eV/A.
  Present geometry is converged.

------------------------------------------------------------
  Final atomic structure:
                         x [A]             y [A]             z [A]
  lattice_vector         3.14998114        0.00000000       -0.00000000
  lattice_vector        -1.57494797        2.72788991       -0.00000000
  lattice_vector         0.00000000       -0.00000000       12.29889596

            atom        -0.00111515        1.81905675        3.07486274  Mo
            atom         1.57614806        0.90883322        9.22403428  Mo
            atom         0.00164344        1.81783989       10.79797952  S
            atom         1.57338985        0.91004983        4.64876587  S
            atom         1.57338900        0.91005005        1.50091348  S
            atom         0.00164431        1.81783998        7.65013200  S

  Fractional coordinates:
                         L1                L2                L3
       atom_frac         0.33305525        0.66683657        0.25001128  Mo
       atom_frac         0.66694468        0.33316345        0.74998880  Mo
       atom_frac         0.33370796        0.66639049        0.87796332  S
       atom_frac         0.66629204        0.33360944        0.37798237  S
       atom_frac         0.66629181        0.33360952        0.12203644  S
       atom_frac         0.33370825        0.66639052        0.62201778  S
------------------------------------------------------------

------------------------------------------------------------------------------
  Final output of selected total energy values:

  The following output summarizes some interesting total energy values
  at the end of a run (AFTER all relaxation, molecular dynamics, etc.).

  | Total energy of the DFT / Hartree-Fock s.c.f. calculation      :        -265995.689712739 eV
  | Final zero-broadening corrected energy (caution - metals only) :        -265995.689712739 eV
  | For reference only, the value of 1 Hartree used in FHI-aims is :             27.211384500 eV

  Before relying on these values, please be sure to understand exactly which
  total energy value is referred to by a given number. Different objects may
  all carry the same name 'total energy'. Definitions:

  Total energy of the DFT / Hartree-Fock s.c.f. calculation:
  | Note that this energy does not include ANY quantities calculated after the
  | s.c.f. cycle, in particular not ANY RPA, MP2, etc. many-body perturbation terms.

  Final zero-broadening corrected energy:
  | For metallic systems only, a broadening of the occupation numbers at the Fermi
  | level can be extrapolated back to zero broadening by an electron-gas inspired
  | formula. For all systems that are not real metals, this value can be
  | meaningless and should be avoided.

------------------------------------------------------------------------------
  Methods described in the following list of references were used in this FHI-aims run.
  If you publish the results, please make sure to cite these reference if they apply.
  FHI-aims is an academic code, and for our developers (often, Ph.D. students
  and postdocs), scientific credit in the community is essential.
  Thank you for helping us!

  For any use of FHI-aims, please cite:

    Volker Blum, Ralf Gehrke, Felix Hanke, Paula Havu, Ville Havu,
    Xinguo Ren, Karsten Reuter, and Matthias Scheffler
    'Ab initio molecular simulations with numeric atom-centered orbitals'
    Computer Physics Communications 180, 2175-2196 (2009)
    http://dx.doi.org/10.1016/j.cpc.2009.06.022


  For the analytical stress tensor used in your run, please cite:

    Franz Knuth, Christian Carbogno, Viktor Atalla, Volker Blum, Matthias Scheffler
    'All-electron formalism for total energy strain derivatives and
    stress tensor components for numeric atom-centered orbitals'
    Computer Physics Communications 190, 33-50 (2015).
    http://dx.doi.org/10.1016/j.cpc.2015.01.003


  The scalable eigensolver library ELPA was used in your run.
  ELPA is essential especially for large systems on hundreds or thousands of CPUs.
  For ELPA, please cite:

    Andreas Marek, Volker Blum, Rainer Johanni, Ville Havu, Bruno Lang,
    Thomas Auckenthaler, Alexander Heinecke, Hans-Joachim Bungartz, and Hermann Lederer,
    'The ELPA Library - Scalable Parallel Eigenvalue Solutions
    for Electronic Structure Theory and Computational Science'
    The Journal of Physics: Condensed Matter 26, 213201 (2014).
    http://dx.doi.org/10.1088/0953-8984/26/21/213201


  The ELSI infrastructure was used in your run to solve the Kohn-Sham electronic structure.
  Please check out http://elsi-interchange.org to learn more.
  If scalability is important for your project, please acknowledge ELSI by citing:

    V. W-z. Yu, F. Corsetti, A. Garcia, W. P. Huhn, M. Jacquelin, W. Jia,
    B. Lange, L. Lin, J. Lu, W. Mi, A. Seifitokaldani, A. Vazquez-Mayagoitia,
    C. Yang, H. Yang, and V. Blum
    'ELSI: A unified software interface for Kohn-Sham electronic structure solvers'
    Computer Physics Communications 222, 267-285 (2018).
    http://dx.doi.org/10.1016/j.cpc.2017.09.007


  For the real-space grid partitioning and parallelization used in this calculation, please cite:

    Ville Havu, Volker Blum, Paula Havu, and Matthias Scheffler,
    'Efficient O(N) integration for all-electron electronic structure calculation'
    'using numerically tabulated basis functions'
    Journal of Computational Physics 228, 8367-8379 (2009).
    http://dx.doi.org/10.1016/j.jcp.2009.08.008

  Of course, there are many other important community references, e.g., those cited in the
  above references. Our list is limited to references that describe implementations in the
  FHI-aims code. The reason is purely practical (length of this list) - please credit others as well.

   One or more s.c.f. cycles took more than 50 s.c.f. iterations.
   It might be worth adjusting your convergence settings. For example,
   metals need a larger broadening and a smaller "charge_mix_param" value than semiconductors.

------------------------------------------------------------
          Leaving FHI-aims.
          Date     :  20191129, Time     :  111940.597

          Computational steps:
          | Number of self-consistency cycles          :          146
          | Number of SCF (re)initializations          :            6
          | Number of relaxation steps                 :            5

          Detailed time accounting                     :  max(cpu_time)    wall_clock(cpu1)
          | Total time                                 :     1870.508 s        1869.223 s
          | Preparation time                           :        0.456 s           0.453 s
          | Boundary condition initalization           :        1.168 s           1.120 s
          | Grid partitioning                          :        0.848 s           0.836 s
          | Preloading free-atom quantities on grid    :        0.848 s           0.834 s
          | Free-atom superposition energy             :        0.120 s           0.106 s
          | Total time for integrations                :      238.408 s         237.863 s
          | Total time for solution of K.-S. equations :      490.392 s         490.443 s
          | Total time for EV reorthonormalization     :        3.044 s           2.958 s
          | Total time for density & force components  :     1011.932 s        1010.736 s
          | Total time for mixing & preconditioning    :       12.076 s          12.059 s
          | Total time for Hartree multipole update    :        0.608 s           0.356 s
          | Total time for Hartree multipole sum       :       36.904 s          36.563 s
          | Total time for total energy evaluation     :        1.224 s           1.157 s
          | Total time for scaled ZORA corrections     :        0.000 s           0.000 s
          | Total time for vdW correction              :       72.400 s          72.352 s

          Partial memory accounting:
          | Residual value for overall tracked memory usage across tasks :           0.000 MB (should be 0.000 MB)
          | Peak values for overall tracked memory usage (after allocating wave_pulay):
          |   Minimum:      168.603 MB (on task 77)
          |   Maximum:      175.952 MB (on task 22)
          |   Average:      172.561 MB
          | Largest tracked array allocation (density_matrix_con):
          |   Minimum:       42.173 MB (on task 77)
          |   Maximum:       46.234 MB (on task 22)
          |   Average:       44.529 MB
          Note:  These values currently only include a subset of arrays which are explicitly tracked.
          The "true" memory usage will be greater.

          Have a nice day.
------------------------------------------------------------
