  MPI-parallelism will be employed.
------------------------------------------------------------
          Invoking FHI-aims ...
          Version 171221_1
          Compiled on 2018/11/06 at 11:18:49 on host headnode.

          When using FHI-aims, please cite the following reference:

          Volker Blum, Ralf Gehrke, Felix Hanke, Paula Havu,
          Ville Havu, Xinguo Ren, Karsten Reuter, and Matthias Scheffler,
          'Ab Initio Molecular Simulations with Numeric Atom-Centered Orbitals',
          Computer Physics Communications 180, 2175-2196 (2009)

          For any questions about FHI-aims, please visit the aimsclub website
          with its forums and wiki. Contributions to both the forums and the
          wiki are warmly encouraged - they are for you, and everyone is welcome there.

------------------------------------------------------------



  Date     :  20191127, Time     :  221748.311
  Time zero on CPU 1             :   0.448000000000000E+00  s.
  Internal wall clock time zero  :           344125068.311  s.

  FHI-aims created a unique identifier for this run for later identification
  aims_uuid : 400CE8E7-83EB-49D5-A692-5F9846114CEF

  Using       80 parallel tasks.
  Task        0 on host t030 reporting.
  Task        1 on host t030 reporting.
  Task        2 on host t030 reporting.
  Task        3 on host t030 reporting.
  Task        4 on host t030 reporting.
  Task        5 on host t030 reporting.
  Task        6 on host t030 reporting.
  Task        7 on host t030 reporting.
  Task        8 on host t030 reporting.
  Task        9 on host t030 reporting.
  Task       10 on host t030 reporting.
  Task       11 on host t030 reporting.
  Task       12 on host t030 reporting.
  Task       13 on host t030 reporting.
  Task       14 on host t030 reporting.
  Task       15 on host t030 reporting.
  Task       16 on host t030 reporting.
  Task       17 on host t030 reporting.
  Task       18 on host t030 reporting.
  Task       19 on host t030 reporting.
  Task       20 on host t024 reporting.
  Task       21 on host t024 reporting.
  Task       22 on host t024 reporting.
  Task       23 on host t024 reporting.
  Task       24 on host t024 reporting.
  Task       25 on host t024 reporting.
  Task       26 on host t024 reporting.
  Task       27 on host t024 reporting.
  Task       28 on host t024 reporting.
  Task       29 on host t024 reporting.
  Task       30 on host t024 reporting.
  Task       31 on host t024 reporting.
  Task       32 on host t024 reporting.
  Task       33 on host t024 reporting.
  Task       34 on host t024 reporting.
  Task       35 on host t024 reporting.
  Task       36 on host t024 reporting.
  Task       37 on host t024 reporting.
  Task       38 on host t024 reporting.
  Task       39 on host t024 reporting.
  Task       40 on host t019 reporting.
  Task       41 on host t019 reporting.
  Task       42 on host t019 reporting.
  Task       43 on host t019 reporting.
  Task       44 on host t019 reporting.
  Task       45 on host t019 reporting.
  Task       46 on host t019 reporting.
  Task       47 on host t019 reporting.
  Task       48 on host t019 reporting.
  Task       49 on host t019 reporting.
  Task       50 on host t019 reporting.
  Task       51 on host t019 reporting.
  Task       52 on host t019 reporting.
  Task       53 on host t019 reporting.
  Task       54 on host t019 reporting.
  Task       55 on host t019 reporting.
  Task       56 on host t019 reporting.
  Task       57 on host t019 reporting.
  Task       58 on host t019 reporting.
  Task       59 on host t019 reporting.
  Task       60 on host t018 reporting.
  Task       61 on host t018 reporting.
  Task       62 on host t018 reporting.
  Task       63 on host t018 reporting.
  Task       64 on host t018 reporting.
  Task       65 on host t018 reporting.
  Task       66 on host t018 reporting.
  Task       67 on host t018 reporting.
  Task       68 on host t018 reporting.
  Task       69 on host t018 reporting.
  Task       70 on host t018 reporting.
  Task       71 on host t018 reporting.
  Task       72 on host t018 reporting.
  Task       73 on host t018 reporting.
  Task       74 on host t018 reporting.
  Task       75 on host t018 reporting.
  Task       76 on host t018 reporting.
  Task       77 on host t018 reporting.
  Task       78 on host t018 reporting.
  Task       79 on host t018 reporting.

  Performing system and environment tests:
  | Environment variable OMP_NUM_THREADS correctly set to 1.
  | Stacksize not measured: no C compiler
  | Checking for scalapack...
  | Testing pdtran()...
  | All pdtran() tests passed.

  Obtaining array dimensions for all initial allocations:
  
  -----------------------------------------------------------------------
  Parsing control.in (first pass over file, find array dimensions only).
  The contents of control.in will be repeated verbatim below
  unless switched off by setting 'verbatim_writeout .false.' .
  in the first line of control.in .
  -----------------------------------------------------------------------
  
  #===============================================================================
  # FHI-aims file: ./control.in
  # Created using the Atomic Simulation Environment (ASE)
  # Wed Nov 27 20:14:06 2019
  #
  # List of parameters used to initialize the calculator:
  #     relativistic : ('atomic_zora', 'scalar')
  #     adjust_scf : once 2
  #     spin : none
  #     xc : pbe
  #     k_grid : [18, 18, 1]
  #     species_dir : /chemsoft/FHI-aims/stable/species_defaults/tight
  #===============================================================================
  relativistic                       atomic_zora scalar
  adjust_scf                         once 2
  ### geometry optimisation section
  relax_geometry    bfgs    1E-2
  relax_unit_cell       fixed_angles
  spin                               none
  xc                                 pbe
  many_body_dispersion
  k_grid                             18 18 1
  #===============================================================================
  
  ################################################################################
  #
  #  FHI-aims code project
  # Volker Blum, Fritz Haber Institute Berlin, 2009
  #
  #  Suggested "tight" defaults for Mo atom (to be pasted into control.in file)
  #
  ################################################################################
    species        Mo
  #     global species definitions
      nucleus             42
      mass                95.94
  #
      l_hartree           6
  #
      cut_pot             4.0  2.0  1.0
      basis_dep_cutoff    1e-4
  #
      radial_base         59 7.0
      radial_multiplier   2
      angular_grids specified
        division   0.3117   50
        division   0.6750  110
        division   1.0351  194
        division   1.2073  302
        division   1.6402  434
  #      division   1.9185  590
  #      division   2.0237  770
  #      division   2.0980  974
  #      division   2.7972 1202
  #      outer_grid  974
        outer_grid  434
  ################################################################################
  #
  #  Definition of "minimal" basis
  #
  ################################################################################
  #     valence basis states
      valence      5  s   1.
      valence      4  p   6.
      valence      4  d   5.
  #     ion occupancy
      ion_occ     5  s   0.
      ion_occ     4  p   6.
      ion_occ     4  d   4.
  ################################################################################
  #
  #  Suggested additional basis functions. For production calculations,
  #  uncomment them one after another (the most important basis functions are
  #  listed first).
  #
  #  Constructed for dimers: 1.675 A, 1.9 A, 2.375 A, 3.00 A, 4.00 A
  #
  ################################################################################
  #  "First tier"  - max. impr. -711.23  meV, min. impr. -21.07 meV
       hydro 4 f 8.4
       hydro 3 d 2.8
       ionic 5 p auto
       hydro 5 g 12
       ionic 5 s auto
  #  "Second tier" - max. impr. -39.38  meV, min. impr. -2.68 meV
       hydro 4 f 12.4
       hydro 3 d 3.3
       hydro 6 h 17.2
       hydro 4 f 7.6
       hydro 3 p 3.0
       hydro 1 s 0.65
  #  "Third tier"  - max. impr. -5.50 meV, min. impr. -0.47 meV
  #     hydro 4 f 29.2
  #     hydro 5 g 11.2
  #     hydro 3 d 6.8
  #     hydro 6 h 14.8
  #     hydro 2 p 2.3
  #     hydro 4 s 3.8
  #  "Fourth tier"  - max. impr. -0.58 meV, min. impr. -0.19 meV
  #     hydro 5 f 6.8
  #     hydro 5 d 14.8
  #     hydro 6 s 7.8
  #     hydro 5 g 20.8
  #     hydro 5 d 10.4
  #     hydro 5 p 9.8
  #  Further functions - -0.17 meV and below
  #     hydro 5 d 3.2
  ################################################################################
  #
  #  FHI-aims code project
  # Volker Blum, Fritz Haber Institute Berlin, 2009
  #
  #  Suggested "tight" defaults for Te atom (to be pasted into control.in file)
  #
  ################################################################################
    species        Te
  #     global species definitions
      nucleus             52
      mass                127.60
  #
      l_hartree           6
  #
      cut_pot             4.0  2.0  1.0
      basis_dep_cutoff    1e-4
  #
      radial_base         64 7.0
      radial_multiplier   2
      angular_grids specified
        division   0.1259  110
        division   0.8959  194
        division   0.9864  302
        division   1.1196  434
  #      division   1.1922  590
  #      division   1.3098  770
  #      division   2.9404  974
  #      outer_grid  974
        outer_grid  434
  ################################################################################
  #
  #  Definition of "minimal" basis
  #
  ################################################################################
  #     valence basis states
      valence      5  s   2.
      valence      5  p   4.
      valence      4  d  10.
  #     ion occupancy
      ion_occ     5  s   1.
      ion_occ     5  p   3.
      ion_occ     4  d  10.
  ################################################################################
  #
  #  Suggested additional basis functions. For production calculations,
  #  uncomment them one after another (the most important basis functions are
  #  listed first).
  #
  #  Constructed for dimers: 2.15 A, 2.55 A, 3.10 A, 3.60 A, 4.50 A
  #
  ################################################################################
  #  "First tier" - max. impr. -217.34  meV, min. impr. -22.97 meV
       hydro 3 d 3.7
       hydro 4 f 6
       hydro 3 p 2.7
       ionic 5 s auto
  #  "Second tier" - max. impr. -17.80 meV, min. impr. -0.57 meV
       hydro 5 g 9
       hydro 4 f 16.4
       hydro 6 h 12
       hydro 4 p 6.4
       hydro 5 f 32.4
       hydro 4 d 5
       hydro 3 s 2.8
  #  "Third tier" - max. impr. -0.51 meV, min. impr. -0.06 meV
  #     hydro 5 f 8.4
  #     hydro 5 g 11.6
  #     hydro 6 h 15.6
  #     hydro 2 p 1.7
  #     hydro 4 d 9.6
  #     hydro 1 s 6.4
  #  Further functions that fell out of the optimization: -0.17 meV and below
  #     hydro 4 f 33.6
  #     hydro 5 d 6.8
  #     hydro 5 f 16
  
  -----------------------------------------------------------------------
  Completed first pass over input file control.in .
  -----------------------------------------------------------------------
  
  
  -----------------------------------------------------------------------
  Parsing geometry.in (first pass over file, find array dimensions only).
  The contents of geometry.in will be repeated verbatim below
  unless switched off by setting 'verbatim_writeout .false.' .
  in the first line of geometry.in .
  -----------------------------------------------------------------------
  
  #=======================================================
  # FHI-aims file: ./geometry.in
  # Created using the Atomic Simulation Environment (ASE)
  # Wed Nov 27 20:14:06 2019
  #=======================================================
  lattice_vector 3.5200000000000000 0.0000000000000000 0.0000000000000000
  lattice_vector -1.7600000000000000 3.0484094200000000 0.0000000000000000
  lattice_vector 0.0000000000000000 0.0000000000000000 100.0000000000000000
  atom -0.0000000000000000 2.0322729499999999 3.4925000000000002 Mo
  atom 1.7600000000000000 1.0161364700000000 10.4774999999999991 Mo
  atom -0.0000000000000000 2.0322729499999999 12.2726450000000007 Te
  atom 1.7600000000000000 1.0161364700000000 5.2876450000000004 Te
  atom 1.7600000000000000 1.0161364700000000 1.6973549999999999 Te
  atom -0.0000000000000000 2.0322729499999999 8.6823549999999994 Te
  
  -----------------------------------------------------------------------
  Completed first pass over input file geometry.in .
  -----------------------------------------------------------------------
  

  Basic array size parameters:
  | Number of species                 :        2
  | Number of atoms                   :        6
  | Number of lattice vectors         :        3
  | Max. basis fn. angular momentum   :        5
  | Max. atomic/ionic basis occupied n:        5
  | Max. number of basis fn. types    :        3
  | Max. radial fns per species/type  :       11
  | Max. logarithmic grid size        :     1454
  | Max. radial integration grid size :      129
  | Max. angular integration grid size:      434
  | Max. angular grid division number :        8
  | Radial grid for Hartree potential :     1454
  | Number of spin channels           :        1

------------------------------------------------------------
          Reading file control.in.
------------------------------------------------------------
  Scalar relativistic treatment of kinetic energy: on-site free-atom approximation to ZORA.
  S.C.F. convergence parameters will be adjusted in iteration number     2 of the first full s.c.f. cycle only.
  Geometry relaxation: Modified BFGS - TRM (trust radius method, i.e., trusted quadratic extrapolation).
  Convergence accuracy for geometry relaxation: Maximum force <   0.100000E-01 eV/A.
  Spin treatment: No spin polarisation.
  XC: Using PBE gradient-corrected functionals.
  Using the default MBD implementation with analytical forces
  Found k-point grid:        18        18         1
 
  Reading configuration options for species Mo                  .
  | Found nuclear charge :  42.0000
  | Found atomic mass :    95.9400000000000      amu
  | Found l_max for Hartree potential  :   6
  | Found cutoff potl. onset [A], width [A], scale factor :    4.00000    2.00000    1.00000
  | Threshold for basis-dependent cutoff potential is   0.100000E-03
  | Found data for basic radial integration grid :    59 points, outermost radius =    7.000 A
  | Found multiplier for basic radial grid :   2
  | Found angular grid specification: user-specified.
  | Specified grid contains     6 separate shells.
  | Check grid settings after all constraints further below.
  | Found free-atom valence shell :  5 s   1.000
  | Found free-atom valence shell :  4 p   6.000
  | Found free-atom valence shell :  4 d   5.000
  | Found free-ion valence shell :  5 s   0.000
  | Found free-ion valence shell :  4 p   6.000
  | Found free-ion valence shell :  4 d   4.000
  | Found hydrogenic basis function :  4 f   8.400
  | Found hydrogenic basis function :  3 d   2.800
  | Found ionic basis function :  5 p , default cutoff radius.
  | Found hydrogenic basis function :  5 g  12.000
  | Found ionic basis function :  5 s , default cutoff radius.
  | Found hydrogenic basis function :  4 f  12.400
  | Found hydrogenic basis function :  3 d   3.300
  | Found hydrogenic basis function :  6 h  17.200
  | Found hydrogenic basis function :  4 f   7.600
  | Found hydrogenic basis function :  3 p   3.000
  | Found hydrogenic basis function :  1 s   0.650
  Species Mo                  : Missing cutoff potential type.
  Defaulting to exp(1/x)/(1-x)^2 type cutoff potential.
  Species Mo: No 'logarithmic' tag. Using default grid for free atom:
  | Default logarithmic grid data [bohr] : 0.1000E-03 0.1000E+03 0.1012E+01
  | Will include ionic basis functions of  2.0-fold positive Mo                   ion.
  Species Mo: On-site basis accuracy parameter (for Gram-Schmidt orthonormalisation) not specified.
  Using default value basis_acc =  0.1000000E-03.
  Species Mo                  : Using default innermost maximum threshold i_radial=  2 for radial functions.
  Species Mo                  : Default cutoff onset for free atom density etc. : 0.40000000E+01 AA.
  Species Mo                  : Basic radial grid will be enhanced according to radial_multiplier =   2, to contain   119 grid points.
 
  Reading configuration options for species Te                  .
  | Found nuclear charge :  52.0000
  | Found atomic mass :    127.600000000000      amu
  | Found l_max for Hartree potential  :   6
  | Found cutoff potl. onset [A], width [A], scale factor :    4.00000    2.00000    1.00000
  | Threshold for basis-dependent cutoff potential is   0.100000E-03
  | Found data for basic radial integration grid :    64 points, outermost radius =    7.000 A
  | Found multiplier for basic radial grid :   2
  | Found angular grid specification: user-specified.
  | Specified grid contains     5 separate shells.
  | Check grid settings after all constraints further below.
  | Found free-atom valence shell :  5 s   2.000
  | Found free-atom valence shell :  5 p   4.000
  | Found free-atom valence shell :  4 d  10.000
  | Found free-ion valence shell :  5 s   1.000
  | Found free-ion valence shell :  5 p   3.000
  | Found free-ion valence shell :  4 d  10.000
  | Found hydrogenic basis function :  3 d   3.700
  | Found hydrogenic basis function :  4 f   6.000
  | Found hydrogenic basis function :  3 p   2.700
  | Found ionic basis function :  5 s , default cutoff radius.
  | Found hydrogenic basis function :  5 g   9.000
  | Found hydrogenic basis function :  4 f  16.400
  | Found hydrogenic basis function :  6 h  12.000
  | Found hydrogenic basis function :  4 p   6.400
  | Found hydrogenic basis function :  5 f  32.400
  | Found hydrogenic basis function :  4 d   5.000
  | Found hydrogenic basis function :  3 s   2.800
  Species Te                  : Missing cutoff potential type.
  Defaulting to exp(1/x)/(1-x)^2 type cutoff potential.
  Species Te: No 'logarithmic' tag. Using default grid for free atom:
  | Default logarithmic grid data [bohr] : 0.1000E-03 0.1000E+03 0.1012E+01
  | Will include ionic basis functions of  2.0-fold positive Te                   ion.
  Species Te: On-site basis accuracy parameter (for Gram-Schmidt orthonormalisation) not specified.
  Using default value basis_acc =  0.1000000E-03.
  Species Te                  : Using default innermost maximum threshold i_radial=  2 for radial functions.
  Species Te                  : Default cutoff onset for free atom density etc. : 0.40000000E+01 AA.
  Species Te                  : Basic radial grid will be enhanced according to radial_multiplier =   2, to contain   129 grid points.
  | MBD: Using the same k-grid sampling as DFT
 
  Finished reading input file 'control.in'. Consistency checks are next.
 
  MPI_IN_PLACE appears to work with this MPI implementation.
  | Keeping use_mpi_in_place .true. (see manual).
  Target number of points in a grid batch is not set. Defaulting to  100
  Method for grid partitioning is not set. Defaulting to parallel hash+maxmin partitioning.
  Batch size limit is not set. Defaulting to    200
  By default, will store active basis functions for each batch.
  If in need of memory, prune_basis_once .false. can be used to disable this option.
  communication_type for Hartree potential was not specified.
  Defaulting to calc_hartree .
  Defaulting to Pulay charge density mixer.
  Pulay mixer: Number of relevant iterations not set.
  Defaulting to    8 iterations.
  Pulay mixer: Number of initial linear mixing iterations not set.
  Defaulting to    0 iterations.
  Work space size for distributed Hartree potential not set.
  Defaulting to   0.200000E+03 MB.
  Mixing parameter for charge density mixing has not been set.
  Using default: charge_mix_param =     0.0500.
  The mixing parameter will be adjusted in iteration number     2 of the first full s.c.f. cycle only.
  Algorithm-dependent basis array size parameters:
  | n_max_pulay                         :        8
 * Notice: The s.c.f. convergence criterion sc_accuracy_rho was not provided.
 * We used to stop in this case, and ask the user to provide reasonable
 * scf convergence criteria. However, this led some users to employ criteria
 * that led to extremely long run times, e.g., for simple relaxation.
 * We now preset a default value for sc_accuracy_rho if it is not set.
 * You may still wish to check if this setting is too tight or too loose for your needs.
 * Based on n_atoms, FHI-aims chose sc_accuracy_rho =  0.100000E-05 .
  Maximum number of self-consistency iterations not provided.
  Presetting  1000 iterations.
  Presetting      1001 iterations before the initial mixing cycle
  is restarted anyway using the sc_init_iter criterion / keyword.
  Presetting a factor      1.000 between actual scf density residual
  and density convergence criterion sc_accuracy_rho below which sc_init_iter
  takes no effect.
 * No s.c.f. convergence criteria (sc_accuracy_*) were provided in control.in.
 * The run will proceed with a reasonable default guess, but please check whether.
 * the s.c.f. cycles seem to take too much or too little time.
  No maximum number of relaxation steps, defaulting to     1000
  Default initial Hessian is Lindh matrix (thres = 15.00) plus  0.200000E+01 eV/A^2 times unity.
  No maximum energy tolerance for TRM/BFGS moves, defaulting to   0.200000E-03
  No harmonic length scale. Defaulting to   0.250000E-01 A.
  No trust radius initializer. Defaulting to   0.200000E+00 A.
  Unit cell relaxation: Restricted relaxation with fixed angles between lattice vectors.
  Unit cell relaxation: Analytical stress will be used.
  Analytical stress will be computed.
  Analytical stress calculation: Only the upper triangle is calculated.
                                 Final output is symmetrized.
  Analytical stress calculation: scf convergence accuracy of stress not set.
                                 Analytical stress self-consistency will not be checked explicitly.
                                 Be sure to set other criteria like sc_accuracy_rho tight enough.
  Force calculation: scf convergence accuracy of forces not set.
  Defaulting to 'sc_accuracy_forces not_checked'.
  Handling of forces: Unphysical translation and rotation will be removed from forces.
  No accuracy limit for integral partition fn. given. Defaulting to  0.1000E-14.
  No threshold value for u(r) in integrations given. Defaulting to  0.1000E-05.
  No occupation type (smearing scheme) given. Defaulting to Gaussian broadening, width =  0.1000E-01 eV.
  The width will be adjusted in iteration number     2 of the first full s.c.f. cycle only.
  S.C.F. convergence parameters will be adjusted in iteration number     2 of the first full s.c.f. cycle only.
  No accuracy for occupation numbers given. Defaulting to  0.1000E-12.
  No threshold value for occupation numbers given. Defaulting to  0.0000E+00.
  No accuracy for fermi level given. Defaulting to  0.1000E-19.
  Maximum # of iterations to find E_F not set. Defaulting to  200.
  Preferred method for the eigenvalue solver ('KS_method') not specified in 'control.in'.
  Defaulting to serial version, 'lapack_fast', since more k-points than CPUs available.
  Will not use alltoall communication since running on < 1024 CPUs.
  Threshold for basis singularities not set.
  Default threshold for basis singularities:  0.1000E-04
  partition_type (choice of integration weights) for integrals was not specified.
  | Using a version of the partition function of Stratmann and coworkers ('stratmann_smoother').
  | At each grid point, the set of atoms used to build the partition table is smoothly restricted to
  | only those atoms whose free-atom density would be non-zero at that grid point.
  Partitioning for Hartree potential was not defined. Using partition_type for integrals.
  | Adjusted default value of keyword multip_moments_threshold to:       0.10000000E-11
  | This value may affect high angular momentum components of the Hartree potential in periodic systems.
  Angular momentum expansion for Kerker preconditioner not set explicitly.
  | Using default value of   0
  No explicit requirement for turning off preconditioner.
  | By default, it will be turned off when the charge convergence reaches
  | sc_accuracy_rho  =   0.100000E-05
  No special mixing parameter while Kerker preconditioner is on.
  Using default: charge_mix_param =     0.0500.
  No q(lm)/r^(l+1) cutoff set for long-range Hartree potential.
  | Using default value of  0.100000E-09 .
  | Verify using the multipole_threshold keyword.
  Defaulting to new monopole extrapolation.
  Density update method: automatic selection selected.
  Using density matrix based charge density update.
  Using density matrix based charge density update.
  Using packed matrix style: index .
  Geometry relaxation: A file "geometry.in.next_step" is written out by default after each step.
  | This file contains the geometry of the current relaxation step as well as
  | the current Hessian matrix needed to restart the relaxation algorithm.
  | If you do not want part or all of this information, use the keywords
  | "write_restart_geometry" or "hessian_to_restart_geometry" to switch the output off.
  Defaulting to use time-reversal symmetry for k-point grid.
------------------------------------------------------------


------------------------------------------------------------
          Reading geometry description geometry.in.
------------------------------------------------------------
  Input structure read successfully.
  The structure contains        6 atoms,  and a total of        292.000 electrons.

  Input geometry:
  | Unit cell:
  |        3.52000000        0.00000000        0.00000000
  |       -1.76000000        3.04840942        0.00000000
  |        0.00000000        0.00000000      100.00000000
  | Atomic structure:
  |       Atom                x [A]            y [A]            z [A]
  |    1: Species Mo            0.00000000        2.03227295        3.49250000
  |    2: Species Mo            1.76000000        1.01613647       10.47750000
  |    3: Species Te            0.00000000        2.03227295       12.27264500
  |    4: Species Te            1.76000000        1.01613647        5.28764500
  |    5: Species Te            1.76000000        1.01613647        1.69735500
  |    6: Species Te            0.00000000        2.03227295        8.68235500

  Lattice parameters for 3D lattice (in Angstroms) :     3.520000    3.520000  100.000000
  Angle(s) between unit vectors (in degrees)      :    90.000000   90.000000  120.000000

  |

  | The smallest distance between any two atoms is         2.71158236 AA.
  |
  | The first atom of this pair is atom number                      2 .
  | The second atom of this pair is atom number                     6 .
  | Wigner-Seitz cell of the first atom image           1     0     0 .
  | (The Wigner-Seitz cell of the second atom is 0 0 0  by definition.)

  Quantities derived from the lattice vectors:
  | Reciprocal lattice vector 1:  1.784996  1.030568  0.000000
  | Reciprocal lattice vector 2: -0.000000  2.061136  0.000000
  | Reciprocal lattice vector 3:  0.000000  0.000000  0.062832
  | Unit cell volume                               :   0.107304E+04  A^3

  Range separation radius for Ewald summation (hartree_convergence_parameter):      5.00000000 bohr.

  Fractional coordinates:
                         L1                L2                L3
       atom_frac         0.33333333        0.66666667        0.03492500  Mo
       atom_frac         0.66666667        0.33333333        0.10477500  Mo
       atom_frac         0.33333333        0.66666667        0.12272645  Te
       atom_frac         0.66666667        0.33333333        0.05287645  Te
       atom_frac         0.66666667        0.33333333        0.01697355  Te
       atom_frac         0.33333333        0.66666667        0.08682355  Te

  Number of empty states per atom not set in control.in - providing a guess from actual geometry.
  | Total number of empty states used during s.c.f. cycle:       33
  If you use a very high smearing, use empty_states (per atom!) in control.in to increase this value.

  Structure-dependent array size parameters: 
  | Maximum number of distinct radial functions  :       43
  | Maximum number of basis functions            :      510
  | Number of Kohn-Sham states (occupied + empty):      179
------------------------------------------------------------

------------------------------------------------------------
          Preparing all fixed parts of the calculation.
------------------------------------------------------------
  Determining machine precision:
    2.225073858507201E-308
  Setting up grids for atomic and cluster calculations.

  Creating wave function, potential, and density for free atoms.

  Species: Mo

  List of occupied orbitals and eigenvalues:
    n    l              occ      energy [Ha]    energy [eV]
    1    0           2.0000      -745.344654    -20281.8600
    2    0           2.0000      -103.288246     -2810.6162
    3    0           2.0000       -17.516687      -476.6533
    4    0           2.0000        -2.358559       -64.1796
    5    0           1.0000        -0.145159        -3.9500
    2    1           6.0000       -92.308627     -2511.8455
    3    1           6.0000       -13.936005      -379.2180
    4    1           6.0000        -1.408138       -38.3174
    3    2          10.0000        -8.119011      -220.9295
    4    2           5.0000        -0.132984        -3.6187


  Species: Te

  List of occupied orbitals and eigenvalues:
    n    l              occ      energy [Ha]    energy [eV]
    1    0           2.0000     -1205.196269    -32795.0591
    2    0           2.0000      -179.435283     -4882.6825
    3    0           2.0000       -35.515934      -966.4377
    4    0           2.0000        -6.038599      -164.3187
    5    0           2.0000        -0.553449       -15.0601
    2    1           6.0000      -160.997293     -4380.9593
    3    1           6.0000       -29.570439      -804.6526
    4    1           6.0000        -4.201054      -114.3165
    5    1           4.0000        -0.217175        -5.9096
    3    2          10.0000       -20.601415      -560.5930
    4    2          10.0000        -1.529160       -41.6105

  Creating fixed part of basis set: Ionic, confined, hydrogenic.
 
  Mo                   ion:

  List of free ionic orbitals and eigenvalues:
    n    l      energy [Ha]    energy [eV]
    1    0      -746.048685    -20301.0176
    2    0      -103.980912     -2829.4646
    3    0       -18.206601      -495.4268
    4    0        -3.040545       -82.7374
    2    1       -93.001013     -2530.6863
    3    1       -14.625827      -397.9890
    4    1        -2.084855       -56.7318
    3    2        -8.808854      -239.7011
    4    2        -0.765435       -20.8285


  List of ionic basis orbitals and eigenvalues:
    n    l      energy [Ha]    energy [eV]    outer radius [A]
    5    1        -0.465587       -12.6693       5.456393
    5    0        -0.650331       -17.6964       5.390095

 
  Mo                   hydrogenic:
 
  List of hydrogenic basis orbitals: 
    n    l      effective z      eigenvalue [eV]  inner max. [A]     outer max. [A]     outer radius [A]   
    4    3         8.400000       -60.0010           1.009788           1.009788           4.487018
    3    2         2.800000       -11.8048           1.687401           1.687401           5.456393
    5    4        12.000000       -78.3687           1.100005           1.100005           4.432498
    4    3        12.400000      -130.7506           0.682864           0.682864           3.428897
    3    2         3.300000       -16.4532           1.439455           1.439455           5.456393
    6    5        17.200000      -111.8085           1.113535           1.113535           4.169676
    4    3         7.600000       -49.1164           1.113535           1.113535           4.828511
    3    1         3.000000       -13.5316           0.528251           2.102736           5.456393
    1    0         0.650000        -5.7375           0.810333           0.810333           5.456393
 
 
  Te                   ion:

  List of free ionic orbitals and eigenvalues:
    n    l      energy [Ha]    energy [eV]
    1    0     -1206.001395    -32816.9677
    2    0      -180.213456     -4903.8576
    3    0       -36.289734      -987.4939
    4    0        -6.806662      -185.2187
    5    0        -1.230780       -33.4912
    2    1      -161.775412     -4402.1329
    3    1       -30.344117      -825.7054
    4    1        -4.968097      -135.1888
    5    1        -0.843350       -22.9487
    3    2       -21.374869      -581.6398
    4    2        -2.290936       -62.3395


  List of ionic basis orbitals and eigenvalues:
    n    l      energy [Ha]    energy [eV]    outer radius [A]
    5    0        -1.230774       -33.4911       4.407087

 
  Te                   hydrogenic:
 
  List of hydrogenic basis orbitals: 
    n    l      effective z      eigenvalue [eV]  inner max. [A]     outer max. [A]     outer radius [A]   
    3    2         3.700000       -20.6934           1.282089           1.282089           5.425112
    4    3         6.000000       -30.6116           1.413813           1.413813           5.359194
    3    1         2.700000       -10.8497           0.586309           2.305482           5.491841
    5    4         9.000000       -44.0820           1.466627           1.466627           5.359194
    4    3        16.400000      -228.7117           0.518841           0.518841           2.803558
    6    5        12.000000       -54.4224           1.578248           1.578248           5.359194
    4    1         6.400000       -34.8270           0.234387           1.942819           5.425112
    5    3        32.400000      -571.3085           0.199946           0.538222           2.249797
    4    2         5.000000       -21.2056           0.721745           2.249797           5.491841
    3    0         2.800000       -11.6572           0.140264           2.450800           5.491841
 

  Adding cutoff potential to free-atom effective potential.
  Creating atomic-like basis functions for current effective potential.

  Species Mo                  :

  List of atomic basis orbitals and eigenvalues:
    n    l      energy [Ha]    energy [eV]    outer radius [A]
    1    0      -745.344654    -20281.8600       0.247552
    2    0      -103.288246     -2810.6162       0.682864
    3    0       -17.516687      -476.6533       1.626637
    4    0        -2.358559       -64.1796       4.220963
    5    0        -0.145159        -3.9500       5.456393
    2    1       -92.308627     -2511.8455       0.699766
    3    1       -13.936005      -379.2180       1.793761
    4    1        -1.408138       -38.3174       4.828511
    3    2        -8.119011      -220.9295       2.181285
    4    2        -0.132984        -3.6187       5.390095


  Species Te                  :

  List of atomic basis orbitals and eigenvalues:
    n    l      energy [Ha]    energy [eV]    outer radius [A]
    1    0     -1205.196269    -32795.0591       0.195117
    2    0      -179.435283     -4882.6825       0.531683
    3    0       -35.515934      -966.4377       1.176937
    4    0        -6.038599      -164.3187       2.735843
    5    0        -0.553449       -15.0601       5.294077
    2    1      -160.997293     -4380.9593       0.544843
    3    1       -29.570439      -804.6526       1.266511
    4    1        -4.201054      -114.3165       3.168123
    5    1        -0.217175        -5.9096       5.425112
    3    2       -20.601415      -560.5930       1.431203
    4    2        -1.529160       -41.6105       4.627949

  Assembling full basis from fixed parts.
  | Species Mo :   atomic orbital   1 s accepted.
  | Species Mo :   atomic orbital   2 s accepted.
  | Species Mo :   atomic orbital   3 s accepted.
  | Species Mo :   atomic orbital   4 s accepted.
  | Species Mo :    ionic orbital   5 s accepted.
  | Species Mo :   atomic orbital   5 s accepted.
  | Species Mo :    hydro orbital   1 s accepted.
  | Species Mo :   atomic orbital   2 p accepted.
  | Species Mo :   atomic orbital   3 p accepted.
  | Species Mo :   atomic orbital   4 p accepted.
  | Species Mo :    ionic orbital   5 p accepted.
  | Species Mo :    hydro orbital   3 p accepted.
  | Species Mo :   atomic orbital   3 d accepted.
  | Species Mo :   atomic orbital   4 d accepted.
  | Species Mo :    hydro orbital   3 d accepted.
  | Species Mo :    hydro orbital   3 d accepted.
  | Species Mo :    hydro orbital   4 f accepted.
  | Species Mo :    hydro orbital   4 f accepted.
  | Species Mo :    hydro orbital   4 f accepted.
  | Species Mo :    hydro orbital   5 g accepted.
  | Species Mo :    hydro orbital   6 h accepted.
  | Species Te :   atomic orbital   1 s accepted.
  | Species Te :   atomic orbital   2 s accepted.
  | Species Te :   atomic orbital   3 s accepted.
  | Species Te :   atomic orbital   4 s accepted.
  | Species Te :    ionic orbital   5 s accepted.
  | Species Te :   atomic orbital   5 s accepted.
  | Species Te :    hydro orbital   3 s accepted.
  | Species Te :   atomic orbital   2 p accepted.
  | Species Te :   atomic orbital   3 p accepted.
  | Species Te :   atomic orbital   4 p accepted.
  | Species Te :   atomic orbital   5 p accepted.
  | Species Te :    hydro orbital   4 p accepted.
  | Species Te :    hydro orbital   3 p accepted.
  | Species Te :   atomic orbital   3 d accepted.
  | Species Te :   atomic orbital   4 d accepted.
  | Species Te :    hydro orbital   3 d accepted.
  | Species Te :    hydro orbital   4 d accepted.
  | Species Te :    hydro orbital   5 f accepted.
  | Species Te :    hydro orbital   4 f accepted.
  | Species Te :    hydro orbital   4 f accepted.
  | Species Te :    hydro orbital   5 g accepted.
  | Species Te :    hydro orbital   6 h accepted.
 
  Basis size parameters after reduction:
  | Total number of radial functions:       43
  | Total number of basis functions :      510
 
  Per-task memory consumption for arrays in subroutine allocate_ext:
  |          16.019416MB.
  Testing on-site integration grid accuracy.
  |  Species  Function  <phi|h_atom|phi> (log., in eV)  <phi|h_atom|phi> (rad., in eV)
           1        1             -20281.8599610543             -20281.8584300616
           1        2              -2810.6161812280              -2810.6161551921
           1        3               -476.6533163555               -476.6533136395
           1        4                -64.1796433667                -64.1796426456
           1        5                 -3.3691762756                 -3.3691802887
           1        6                  4.4704608512                  4.4699102345
           1        7                 47.6285199283                 47.6283663304
           1        8              -2511.8455406047              -2511.8455385741
           1        9               -379.2179896350               -379.2179882338
           1       10                -38.3173891619                -38.3173886619
           1       11                  0.2493245095                  0.2492931069
           1       12                 12.9899978429                 12.9896957264
           1       13               -220.9295301098               -220.9295297081
           1       14                 -3.6195697699                 -3.6195754704
           1       15                  7.1428000922                  7.1426882355
           1       16                 20.1860643586                 20.1854440119
           1       17                 39.6800378350                 39.6800378704
           1       18                 41.9987405107                 41.9987406673
           1       19                 51.4938078473                 51.4938137886
           1       20                 50.2449608881                 50.2449608586
           1       21                 84.8920029004                 84.8920028797
           2       22             -32795.0590846454             -32795.0556605232
           2       23              -4882.6824813465              -4882.6824159868
           2       24               -966.4377413866               -966.4377361228
           2       25               -164.3186507888               -164.3186490966
           2       26                -14.8855865446                -14.8855862180
           2       27                  5.2437428292                  5.2437525172
           2       28                 11.1990165547                 11.1992684860
           2       29              -4380.9592556630              -4380.9592506320
           2       30               -804.6525815679               -804.6525796130
           2       31               -114.3164854912               -114.3164843738
           2       32                 -5.9109395843                 -5.9109349312
           2       33                 11.2960142424                 11.2960193078
           2       34                 11.0222944053                 11.0227420003
           2       35               -560.5930245701               -560.5930241259
           2       36                -41.6105488448                -41.6105483746
           2       37                  5.2198476695                  5.2198521163
           2       38                 17.1207565320                 17.1208262527
           2       39                200.5097003826                200.5097004391
           2       40                168.6935008916                168.6935018573
           2       41                 18.2186318522                 18.2186347166
           2       42                 29.0453900150                 29.0453912086
           2       43                 42.4071998935                 42.4072011778

  Preparing densities etc. for the partition functions (integrals / Hartree potential).

  Preparations completed.
  max(cpu_time)          :      0.556 s.
  Wall clock time (cpu1) :      0.553 s.
------------------------------------------------------------

------------------------------------------------------------
          Begin self-consistency loop: Initialization.

          Date     :  20191127, Time     :  221748.944
------------------------------------------------------------

  Initializing index lists of integration centers etc. from given atomic structure:
  Mapping all atomic coordinates to central unit cell.

  Initializing the k-points
          Using symmetry for reducing the k-points
  | k-points reduced from:      324 to      164
  | Number of k-points                             :       164
  The eigenvectors in the calculations are COMPLEX.
  | K-points in task   0:         2
  | K-points in task   1:         3
  | K-points in task   2:         3
  | K-points in task   3:         3
  | K-points in task   4:         3
  | K-points in task   5:         2
  | K-points in task   6:         2
  | K-points in task   7:         2
  | K-points in task   8:         2
  | K-points in task   9:         2
  | K-points in task  10:         2
  | K-points in task  11:         2
  | K-points in task  12:         2
  | K-points in task  13:         2
  | K-points in task  14:         2
  | K-points in task  15:         2
  | K-points in task  16:         2
  | K-points in task  17:         2
  | K-points in task  18:         2
  | K-points in task  19:         2
  | K-points in task  20:         2
  | K-points in task  21:         2
  | K-points in task  22:         2
  | K-points in task  23:         2
  | K-points in task  24:         2
  | K-points in task  25:         2
  | K-points in task  26:         2
  | K-points in task  27:         2
  | K-points in task  28:         2
  | K-points in task  29:         2
  | K-points in task  30:         2
  | K-points in task  31:         2
  | K-points in task  32:         2
  | K-points in task  33:         2
  | K-points in task  34:         2
  | K-points in task  35:         2
  | K-points in task  36:         2
  | K-points in task  37:         2
  | K-points in task  38:         2
  | K-points in task  39:         2
  | K-points in task  40:         2
  | K-points in task  41:         2
  | K-points in task  42:         2
  | K-points in task  43:         2
  | K-points in task  44:         2
  | K-points in task  45:         2
  | K-points in task  46:         2
  | K-points in task  47:         2
  | K-points in task  48:         2
  | K-points in task  49:         2
  | K-points in task  50:         2
  | K-points in task  51:         2
  | K-points in task  52:         2
  | K-points in task  53:         2
  | K-points in task  54:         2
  | K-points in task  55:         2
  | K-points in task  56:         2
  | K-points in task  57:         2
  | K-points in task  58:         2
  | K-points in task  59:         2
  | K-points in task  60:         2
  | K-points in task  61:         2
  | K-points in task  62:         2
  | K-points in task  63:         2
  | K-points in task  64:         2
  | K-points in task  65:         2
  | K-points in task  66:         2
  | K-points in task  67:         2
  | K-points in task  68:         2
  | K-points in task  69:         2
  | K-points in task  70:         2
  | K-points in task  71:         2
  | K-points in task  72:         2
  | K-points in task  73:         2
  | K-points in task  74:         2
  | K-points in task  75:         2
  | K-points in task  76:         2
  | K-points in task  77:         2
  | K-points in task  78:         2
  | K-points in task  79:         2
  | Number of basis functions in the Hamiltonian integrals :      6630
  | Number of basis functions in a single unit cell        :       510
  | Number of centers in hartree potential         :       648
  | Number of centers in hartree multipole         :       366
  | Number of centers in electron density summation:       276
  | Number of centers in basis integrals           :       288
  | Number of centers in integrals                 :       118
  | Number of centers in hamiltonian               :       276
  | Consuming        143 KiB for k_phase.
  | Number of super-cells (origin) [n_cells]                     :         675
  | Number of super-cells (after PM_index) [n_cells]             :          56
  | Number of super-cells in hamiltonian [n_cells_in_hamiltonian]:          56
  | Size of matrix packed + index [n_hamiltonian_matrix_size] :     2079607
  Initializing relaxation algorithms.
  Partitioning the integration grid into batches with parallel hashing+maxmin method.
  | Number of batches:     2121
  | Maximal batch size:     193
  | Minimal batch size:       7
  | Average batch size:      88.032
  | Standard deviation of batch sizes:      24.464

  Integration load balanced across    80 MPI tasks.
  Work distribution over tasks is as follows:
  Task     0 has       2325 integration points.
  Task     1 has       2298 integration points.
  Task     2 has       2375 integration points.
  Task     3 has       2322 integration points.
  Task     4 has       2311 integration points.
  Task     5 has       2293 integration points.
  Task     6 has       2441 integration points.
  Task     7 has       2291 integration points.
  Task     8 has       2321 integration points.
  Task     9 has       2337 integration points.
  Task    10 has       2297 integration points.
  Task    11 has       2338 integration points.
  Task    12 has       2332 integration points.
  Task    13 has       2300 integration points.
  Task    14 has       2444 integration points.
  Task    15 has       2326 integration points.
  Task    16 has       2293 integration points.
  Task    17 has       2444 integration points.
  Task    18 has       2302 integration points.
  Task    19 has       2296 integration points.
  Task    20 has       2379 integration points.
  Task    21 has       2451 integration points.
  Task    22 has       2320 integration points.
  Task    23 has       2301 integration points.
  Task    24 has       2337 integration points.
  Task    25 has       2298 integration points.
  Task    26 has       2446 integration points.
  Task    27 has       2326 integration points.
  Task    28 has       2378 integration points.
  Task    29 has       2294 integration points.
  Task    30 has       2342 integration points.
  Task    31 has       2361 integration points.
  Task    32 has       2344 integration points.
  Task    33 has       2317 integration points.
  Task    34 has       2299 integration points.
  Task    35 has       2298 integration points.
  Task    36 has       2304 integration points.
  Task    37 has       2347 integration points.
  Task    38 has       2302 integration points.
  Task    39 has       2298 integration points.
  Task    40 has       2318 integration points.
  Task    41 has       2299 integration points.
  Task    42 has       2410 integration points.
  Task    43 has       2292 integration points.
  Task    44 has       2292 integration points.
  Task    45 has       2342 integration points.
  Task    46 has       2305 integration points.
  Task    47 has       2301 integration points.
  Task    48 has       2387 integration points.
  Task    49 has       2354 integration points.
  Task    50 has       2340 integration points.
  Task    51 has       2323 integration points.
  Task    52 has       2410 integration points.
  Task    53 has       2407 integration points.
  Task    54 has       2296 integration points.
  Task    55 has       2295 integration points.
  Task    56 has       2329 integration points.
  Task    57 has       2297 integration points.
  Task    58 has       2416 integration points.
  Task    59 has       2293 integration points.
  Task    60 has       2382 integration points.
  Task    61 has       2321 integration points.
  Task    62 has       2295 integration points.
  Task    63 has       2433 integration points.
  Task    64 has       2297 integration points.
  Task    65 has       2292 integration points.
  Task    66 has       2344 integration points.
  Task    67 has       2325 integration points.
  Task    68 has       2296 integration points.
  Task    69 has       2334 integration points.
  Task    70 has       2293 integration points.
  Task    71 has       2322 integration points.
  Task    72 has       2320 integration points.
  Task    73 has       2320 integration points.
  Task    74 has       2333 integration points.
  Task    75 has       2294 integration points.
  Task    76 has       2337 integration points.
  Task    77 has       2339 integration points.
  Task    78 has       2376 integration points.
  Task    79 has       2329 integration points.
  Initializing partition tables, free-atom densities, potentials, etc. across the integration grid (initialize_grid_storage).
  | initialize_grid_storage: Actual outermost partition radius vs. multipole_radius_free
  | (-- VB: in principle, multipole_radius_free should be larger, hence this output)
  | Species        1: Confinement radius =              6.000000000000000 AA, multipole_radius_free =              6.016994434057369 AA.
  | Species        1: outer_partition_radius set to              6.016994434057369 AA .
  | Species        2: Confinement radius =              6.000000000000000 AA, multipole_radius_free =              6.056084577048819 AA.
  | Species        2: outer_partition_radius set to              6.056084577048819 AA .
  | Original list of interatomic distances with         288 x        288 entries is created.
  | Net number of integration points:   186716
  | of which are non-zero points    :   158372
  | Numerical average free-atom electrostatic potential    :     -2.83316301 eV
  Renormalizing the initial density to the exact electron count on the 3D integration grid.
  | Initial density: Formal number of electrons (from input files) :     292.0000000000
  | Integrated number of electrons on 3D grid     :     291.9998568228
  | Charge integration error                      :      -0.0001431772
  | Normalization factor for density and gradient :       1.0000004903
  Obtaining max. number of non-zero basis functions in each batch (get_n_compute_maxes).
  | Maximal number of non-zero basis functions:     2019 in task     0
  | Maximal number of non-zero basis functions:     1968 in task     1
  | Maximal number of non-zero basis functions:     1968 in task     2
  | Maximal number of non-zero basis functions:     1940 in task     3
  | Maximal number of non-zero basis functions:     1980 in task     4
  | Maximal number of non-zero basis functions:     1918 in task     5
  | Maximal number of non-zero basis functions:     1896 in task     6
  | Maximal number of non-zero basis functions:     1915 in task     7
  | Maximal number of non-zero basis functions:     1990 in task     8
  | Maximal number of non-zero basis functions:     1937 in task     9
  | Maximal number of non-zero basis functions:     1870 in task    10
  | Maximal number of non-zero basis functions:     1940 in task    11
  | Maximal number of non-zero basis functions:     1934 in task    12
  | Maximal number of non-zero basis functions:     1935 in task    13
  | Maximal number of non-zero basis functions:     1911 in task    14
  | Maximal number of non-zero basis functions:     1980 in task    15
  | Maximal number of non-zero basis functions:     1896 in task    16
  | Maximal number of non-zero basis functions:     1929 in task    17
  | Maximal number of non-zero basis functions:     1949 in task    18
  | Maximal number of non-zero basis functions:     1867 in task    19
  | Maximal number of non-zero basis functions:     1980 in task    20
  | Maximal number of non-zero basis functions:     1929 in task    21
  | Maximal number of non-zero basis functions:     1926 in task    22
  | Maximal number of non-zero basis functions:     1971 in task    23
  | Maximal number of non-zero basis functions:     1975 in task    24
  | Maximal number of non-zero basis functions:     1919 in task    25
  | Maximal number of non-zero basis functions:     1910 in task    26
  | Maximal number of non-zero basis functions:     1845 in task    27
  | Maximal number of non-zero basis functions:     1919 in task    28
  | Maximal number of non-zero basis functions:     1897 in task    29
  | Maximal number of non-zero basis functions:     1914 in task    30
  | Maximal number of non-zero basis functions:     1908 in task    31
  | Maximal number of non-zero basis functions:     1964 in task    32
  | Maximal number of non-zero basis functions:     1940 in task    33
  | Maximal number of non-zero basis functions:     1912 in task    34
  | Maximal number of non-zero basis functions:     1893 in task    35
  | Maximal number of non-zero basis functions:     1945 in task    36
  | Maximal number of non-zero basis functions:     1916 in task    37
  | Maximal number of non-zero basis functions:     1935 in task    38
  | Maximal number of non-zero basis functions:     1909 in task    39
  | Maximal number of non-zero basis functions:     1887 in task    40
  | Maximal number of non-zero basis functions:     1891 in task    41
  | Maximal number of non-zero basis functions:     1914 in task    42
  | Maximal number of non-zero basis functions:     1937 in task    43
  | Maximal number of non-zero basis functions:     1934 in task    44
  | Maximal number of non-zero basis functions:     1901 in task    45
  | Maximal number of non-zero basis functions:     1965 in task    46
  | Maximal number of non-zero basis functions:     1918 in task    47
  | Maximal number of non-zero basis functions:     1959 in task    48
  | Maximal number of non-zero basis functions:     1900 in task    49
  | Maximal number of non-zero basis functions:     2007 in task    50
  | Maximal number of non-zero basis functions:     1880 in task    51
  | Maximal number of non-zero basis functions:     1912 in task    52
  | Maximal number of non-zero basis functions:     1940 in task    53
  | Maximal number of non-zero basis functions:     1816 in task    54
  | Maximal number of non-zero basis functions:     1903 in task    55
  | Maximal number of non-zero basis functions:     1927 in task    56
  | Maximal number of non-zero basis functions:     1893 in task    57
  | Maximal number of non-zero basis functions:     1909 in task    58
  | Maximal number of non-zero basis functions:     1908 in task    59
  | Maximal number of non-zero basis functions:     1975 in task    60
  | Maximal number of non-zero basis functions:     2066 in task    61
  | Maximal number of non-zero basis functions:     1910 in task    62
  | Maximal number of non-zero basis functions:     1917 in task    63
  | Maximal number of non-zero basis functions:     1909 in task    64
  | Maximal number of non-zero basis functions:     1911 in task    65
  | Maximal number of non-zero basis functions:     1975 in task    66
  | Maximal number of non-zero basis functions:     1964 in task    67
  | Maximal number of non-zero basis functions:     1894 in task    68
  | Maximal number of non-zero basis functions:     2050 in task    69
  | Maximal number of non-zero basis functions:     1977 in task    70
  | Maximal number of non-zero basis functions:     2008 in task    71
  | Maximal number of non-zero basis functions:     1922 in task    72
  | Maximal number of non-zero basis functions:     1930 in task    73
  | Maximal number of non-zero basis functions:     1903 in task    74
  | Maximal number of non-zero basis functions:     1911 in task    75
  | Maximal number of non-zero basis functions:     1994 in task    76
  | Maximal number of non-zero basis functions:     1923 in task    77
  | Maximal number of non-zero basis functions:     1937 in task    78
  | Maximal number of non-zero basis functions:     2104 in task    79
  Allocating        2.921 MB for KS_eigenvector_complex
  Integrating Hamiltonian matrix: batch-based integration.
  Time summed over all CPUs for integration: real work       83.469 s, elapsed       88.531 s
  Integrating overlap matrix.
  Time summed over all CPUs for integration: real work       63.985 s, elapsed       67.964 s
  Decreasing sparse matrix size:
   Tolerance:  9.999999824516700E-014
   Hamiltonian matrix
  | Array has  1701621 nonzero elements out of  2079607 elements
  | Sparsity factor is 0.182
   Overlap matrix
  | Array has  1565034 nonzero elements out of  2079607 elements
  | Sparsity factor is 0.247
  New size of hamiltonian matrix:     1712273

  Updating Kohn-Sham eigenvalues and eigenvectors using ELSI and the ELPA eigensolver.
  Overlap matrix is nonsingular
  | Lowest eigenvalue of overlap  :  0.49E-04
  | Highest eigenvalue of overlap :  0.92E+01
  Finished singularity check of overlap matrix
  | Time :     0.063 s
  Finished Cholesky decomposition
  | Time :     0.017 s
  Finished transformation to standard eigenproblem
  | Time :     0.026 s
  Starting LAPACK eigensolver
  Finished solving standard eigenproblem
  | Time :     0.068 s
  Finished back-transformation of eigenvectors
  | Time :     0.008 s

  Obtaining occupation numbers and chemical potential using ELSI.
  | Chemical potential (Fermi level):    -5.22829455eV
  Writing Kohn-Sham eigenvalues.
  K-point:       1 at    0.000000    0.000000    0.000000 (in units of recip. lattice)

  State    Occupation    Eigenvalue [Ha]    Eigenvalue [eV]
      1       2.00000       -1205.209976       -32795.43205
      2       2.00000       -1205.209976       -32795.43205
      3       2.00000       -1205.209930       -32795.43082
      4       2.00000       -1205.209930       -32795.43082
      5       2.00000        -745.360172       -20282.28224
      6       2.00000        -745.360172       -20282.28224
      7       2.00000        -179.449130        -4883.05927
      8       2.00000        -179.449130        -4883.05927
      9       2.00000        -179.449084        -4883.05801
     10       2.00000        -179.449084        -4883.05801
     11       2.00000        -161.011139        -4381.33601
     12       2.00000        -161.011139        -4381.33601
     13       2.00000        -161.011128        -4381.33571
     14       2.00000        -161.011128        -4381.33571
     15       2.00000        -161.011128        -4381.33571
     16       2.00000        -161.011128        -4381.33571
     17       2.00000        -161.011093        -4381.33475
     18       2.00000        -161.011093        -4381.33475
     19       2.00000        -161.011082        -4381.33446
     20       2.00000        -161.011082        -4381.33446
     21       2.00000        -161.011082        -4381.33446
     22       2.00000        -161.011082        -4381.33446
     23       2.00000        -103.304257        -2811.05186
     24       2.00000        -103.304257        -2811.05186
     25       2.00000         -92.324640        -2512.28128
     26       2.00000         -92.324640        -2512.28128
     27       2.00000         -92.324622        -2512.28080
     28       2.00000         -92.324622        -2512.28080
     29       2.00000         -92.324622        -2512.28080
     30       2.00000         -92.324622        -2512.28080
     31       2.00000         -35.530279         -966.82807
     32       2.00000         -35.530279         -966.82807
     33       2.00000         -35.530227         -966.82666
     34       2.00000         -35.530227         -966.82666
     35       2.00000         -29.584855         -805.04485
     36       2.00000         -29.584855         -805.04485
     37       2.00000         -29.584799         -805.04334
     38       2.00000         -29.584799         -805.04334
     39       2.00000         -29.584753         -805.04208
     40       2.00000         -29.584753         -805.04208
     41       2.00000         -29.584753         -805.04208
     42       2.00000         -29.584753         -805.04208
     43       2.00000         -29.584702         -805.04071
     44       2.00000         -29.584702         -805.04071
     45       2.00000         -29.584702         -805.04071
     46       2.00000         -29.584702         -805.04071
     47       2.00000         -20.615732         -560.98262
     48       2.00000         -20.615732         -560.98262
     49       2.00000         -20.615715         -560.98216
     50       2.00000         -20.615715         -560.98216
     51       2.00000         -20.615715         -560.98216
     52       2.00000         -20.615715         -560.98216
     53       2.00000         -20.615679         -560.98117
     54       2.00000         -20.615679         -560.98117
     55       2.00000         -20.615663         -560.98073
     56       2.00000         -20.615663         -560.98073
     57       2.00000         -20.615663         -560.98073
     58       2.00000         -20.615663         -560.98073
     59       2.00000         -20.615649         -560.98034
     60       2.00000         -20.615649         -560.98034
     61       2.00000         -20.615649         -560.98034
     62       2.00000         -20.615649         -560.98034
     63       2.00000         -20.615600         -560.97901
     64       2.00000         -20.615600         -560.97901
     65       2.00000         -20.615600         -560.97901
     66       2.00000         -20.615600         -560.97901
     67       2.00000         -17.534112         -477.12746
     68       2.00000         -17.534112         -477.12746
     69       2.00000         -13.953609         -379.69703
     70       2.00000         -13.953609         -379.69703
     71       2.00000         -13.953422         -379.69192
     72       2.00000         -13.953422         -379.69192
     73       2.00000         -13.953422         -379.69192
     74       2.00000         -13.953422         -379.69192
     75       2.00000          -8.136507         -221.40563
     76       2.00000          -8.136507         -221.40563
     77       2.00000          -8.136502         -221.40547
     78       2.00000          -8.136502         -221.40547
     79       2.00000          -8.136502         -221.40547
     80       2.00000          -8.136502         -221.40547
     81       2.00000          -8.136352         -221.40141
     82       2.00000          -8.136352         -221.40141
     83       2.00000          -8.136352         -221.40141
     84       2.00000          -8.136352         -221.40141
     85       2.00000          -6.055783         -164.78623
     86       2.00000          -6.055783         -164.78623
     87       2.00000          -6.055695         -164.78384
     88       2.00000          -6.055695         -164.78384
     89       2.00000          -4.219341         -114.81411
     90       2.00000          -4.219341         -114.81410
     91       2.00000          -4.219214         -114.81064
     92       2.00000          -4.219214         -114.81064
     93       2.00000          -4.218626         -114.79466
     94       2.00000          -4.218626         -114.79466
     95       2.00000          -4.218626         -114.79466
     96       2.00000          -4.218626         -114.79466
     97       2.00000          -4.218544         -114.79242
     98       2.00000          -4.218544         -114.79242
     99       2.00000          -4.218544         -114.79242
    100       2.00000          -4.218544         -114.79242
    101       2.00000          -2.388335          -64.98990
    102       2.00000          -2.388335          -64.98990
    103       2.00000          -1.550491          -42.19099
    104       2.00000          -1.550490          -42.19099
    105       2.00000          -1.550483          -42.19079
    106       2.00000          -1.550483          -42.19079
    107       2.00000          -1.550076          -42.17973
    108       2.00000          -1.550042          -42.17878
    109       2.00000          -1.549940          -42.17600
    110       2.00000          -1.549940          -42.17600
    111       2.00000          -1.549934          -42.17585
    112       2.00000          -1.549934          -42.17584
    113       2.00000          -1.549648          -42.16806
    114       2.00000          -1.549633          -42.16766
    115       2.00000          -1.548939          -42.14877
    116       2.00000          -1.548939          -42.14877
    117       2.00000          -1.548913          -42.14808
    118       2.00000          -1.548913          -42.14808
    119       2.00000          -1.548808          -42.14520
    120       2.00000          -1.548807          -42.14520
    121       2.00000          -1.548807          -42.14517
    122       2.00000          -1.548807          -42.14517
    123       2.00000          -1.447004          -39.37497
    124       2.00000          -1.447003          -39.37496
    125       2.00000          -1.439870          -39.18086
    126       2.00000          -1.439870          -39.18086
    127       2.00000          -1.439870          -39.18086
    128       2.00000          -1.439870          -39.18086
    129       2.00000          -0.685404          -18.65080
    130       2.00000          -0.680422          -18.51521
    131       2.00000          -0.646552          -17.59356
    132       2.00000          -0.638728          -17.38066
    133       2.00000          -0.410650          -11.17436
    134       2.00000          -0.387268          -10.53810
    135       2.00000          -0.294609           -8.01673
    136       2.00000          -0.265183           -7.21600
    137       2.00000          -0.265182           -7.21598
    138       2.00000          -0.264858           -7.20716
    139       2.00000          -0.264857           -7.20714
    140       2.00000          -0.250882           -6.82686
    141       2.00000          -0.231813           -6.30794
    142       2.00000          -0.231812           -6.30792
    143       2.00000          -0.231048           -6.28713
    144       2.00000          -0.231047           -6.28711
    145       2.00000          -0.218709           -5.95138
    146       2.00000          -0.193567           -5.26723
    147       0.00000          -0.090221           -2.45504
    148       0.00000          -0.090220           -2.45501
    149       0.00000          -0.088111           -2.39763
    150       0.00000          -0.088111           -2.39761
    151       0.00000          -0.077459           -2.10777
    152       0.00000          -0.077458           -2.10774
    153       0.00000          -0.073394           -1.99715
    154       0.00000          -0.073393           -1.99712
    155       0.00000          -0.004487           -0.12210
    156       0.00000           0.002323            0.06322
    157       0.00000           0.024633            0.67030
    158       0.00000           0.025393            0.69097
    159       0.00000           0.085044            2.31417
    160       0.00000           0.089682            2.44038
    161       0.00000           0.106570            2.89991
    162       0.00000           0.129874            3.53404
    163       0.00000           0.129874            3.53405
    164       0.00000           0.138013            3.75554
    165       0.00000           0.138014            3.75556
    166       0.00000           0.176019            4.78973
    167       0.00000           0.192364            5.23450
    168       0.00000           0.201508            5.48331
    169       0.00000           0.201511            5.48340
    170       0.00000           0.206139            5.60933
    171       0.00000           0.209670            5.70541
    172       0.00000           0.209672            5.70546
    173       0.00000           0.214670            5.84146
    174       0.00000           0.226473            6.16263
    175       0.00000           0.256977            6.99271
    176       0.00000           0.311362            8.47260
    177       0.00000           0.311370            8.47281
    178       0.00000           0.320944            8.73334
    179       0.00000           0.320956            8.73365

  What follows are estimated values for band gap, HOMO, LUMO, etc.
  | They are estimated on a discrete k-point grid and not necessarily exact.
  | For converged numbers, create a DOS and/or band structure plot on a denser k-grid.

  Highest occupied state (VBM) at     -5.26722847 eV (relative to internal zero)
  | Occupation number:      1.99999996
  | K-point:       1 at    0.000000    0.000000    0.000000 (in units of recip. lattice)

  Lowest unoccupied state (CBM) at    -4.22167855 eV (relative to internal zero)
  | Occupation number:      0.00000000
  | K-point:      46 at    0.166667    0.611111    0.000000 (in units of recip. lattice)

  ESTIMATED overall HOMO-LUMO gap:      1.04554993 eV between HOMO at k-point 1 and LUMO at k-point 46
  | This appears to be an indirect band gap.
  | Smallest direct gap :      1.11693886 eV for k_point 83 at    0.166667    0.611111    0.000000 (in units of recip. lattice)
  The gap value is above 0.2 eV. Unless you are using a very sparse k-point grid,
  this system is most likely an insulator or a semiconductor.
  Calculating total energy contributions from superposition of free atom densities.

  Total energy components:
  | Sum of eigenvalues            :      -21915.12919066 Ha     -596341.00677409 eV
  | XC energy correction          :        -956.20294138 Ha      -26019.60589802 eV
  | XC potential correction       :        1247.46137809 Ha       33945.15120814 eV
  | Free-atom electrostatic energy:      -14127.89396304 Ha     -384439.55480343 eV
  | Hartree energy correction     :           0.00000000 Ha           0.00000000 eV
  | Entropy correction            :          -0.00000000 Ha          -0.00000000 eV
  | ---------------------------
  | Total energy                  :      -35751.76471698 Ha     -972855.01626740 eV
  | Total energy, T -> 0          :      -35751.76471698 Ha     -972855.01626740 eV  <-- do not rely on this value for anything but (periodic) metals
  | Electronic free energy        :      -35751.76471698 Ha     -972855.01626740 eV

  Derived energy quantities:
  | Kinetic energy                :       37336.40376967 Ha     1015975.23882367 eV
  | Electrostatic energy          :      -72131.96554527 Ha    -1962810.64919305 eV
  | Energy correction for multipole
  | error in Hartree potential    :           0.00000000 Ha           0.00000000 eV
  | Sum of eigenvalues per atom                           :      -99390.16779568 eV
  | Total energy (T->0) per atom                          :     -162142.50271123 eV  <-- do not rely on this value for anything but (periodic) metals
  | Electronic free energy per atom                       :     -162142.50271123 eV
  Initialize hartree_potential_storage
  Max. number of atoms included in rho_multipole:            6

  End scf initialization - timings             :  max(cpu_time)    wall_clock(cpu1)
  | Time for scf. initialization               :        4.068 s           4.059 s
  | Boundary condition initialization          :        0.948 s           0.940 s
  | Relaxation initialization                  :        0.008 s           0.001 s
  | Integration                                :        2.056 s           2.052 s
  | Solution of K.-S. eqns.                    :        0.692 s           0.689 s
  | Grid partitioning                          :        0.192 s           0.190 s
  | Preloading free-atom quantities on grid    :        0.016 s           0.014 s
  | Free-atom superposition energy             :        0.012 s           0.011 s
  | Total energy evaluation                    :        0.004 s           0.001 s

  Partial memory accounting:
  | Current value for overall tracked memory usage on task 0  :          37.168 MB
  | Peak value for overall tracked memory usage on task 0     :          86.526 MB after allocating wave
  | Largest tracked array allocation on task 0 so far         :          32.611 MB  when allocating hamiltonian_shell
  Note:  These values currently only include a subset of arrays which are explicitly tracked.
  The "true" memory usage will be greater.
------------------------------------------------------------

------------------------------------------------------------
          Begin self-consistency iteration #    1

  Date     :  20191127, Time     :  221753.003
------------------------------------------------------------
  Evaluating new KS density using the density matrix
  Evaluating density matrix
  Time summed over all CPUs for getting density from density matrix: real work      172.054 s, elapsed      182.114 s
  Integration grid: deviation in total charge (<rho> - N_e) =  -1.132889E-10
  Pulay mixing of updated and previous charge densities.

  Evaluating partitioned Hartree potential by multipole expansion.
  | Analytical far-field extrapolation by fixed multipoles:
  | Hartree multipole sum: apparent total charge =   0.162612E-03
  Summing up the Hartree potential.
  | Estimated reciprocal-space cutoff momentum G_max:         1.90186217 bohr^-1 .
  | Reciprocal lattice points for long-range Hartree potential:     750
  Time summed over all CPUs for potential: real work       12.932 s, elapsed       13.510 s
  | RMS charge density error from multipole expansion :   0.281619E-03
  | Average real-space part of the electrostatic potential :     -0.00090960 eV

  Integrating Hamiltonian matrix: batch-based integration.
  Time summed over all CPUs for integration: real work       79.999 s, elapsed       84.836 s

  Updating Kohn-Sham eigenvalues and eigenvectors using ELSI and the ELPA eigensolver.
  Finished Cholesky decomposition
  | Time :     0.016 s
  Finished transformation to standard eigenproblem
  | Time :     0.025 s
  Starting LAPACK eigensolver
  Finished solving standard eigenproblem
  | Time :     0.070 s
  Finished back-transformation of eigenvectors
  | Time :     0.006 s

  Obtaining occupation numbers and chemical potential using ELSI.
  | Chemical potential (Fermi level):    -5.20823248eV
  Writing Kohn-Sham eigenvalues.
  K-point:       1 at    0.000000    0.000000    0.000000 (in units of recip. lattice)

  State    Occupation    Eigenvalue [Ha]    Eigenvalue [eV]
      1       2.00000       -1205.206666       -32795.34199
      2       2.00000       -1205.206666       -32795.34199
      3       2.00000       -1205.206529       -32795.33825
      4       2.00000       -1205.206528       -32795.33825
      5       2.00000        -745.368617       -20282.51202
      6       2.00000        -745.368617       -20282.51202
      7       2.00000        -179.445992        -4882.97387
      8       2.00000        -179.445992        -4882.97387
      9       2.00000        -179.445846        -4882.96992
     10       2.00000        -179.445846        -4882.96992
     11       2.00000        -161.007975        -4381.24992
     12       2.00000        -161.007975        -4381.24992
     13       2.00000        -161.007975        -4381.24992
     14       2.00000        -161.007975        -4381.24992
     15       2.00000        -161.007964        -4381.24963
     16       2.00000        -161.007964        -4381.24963
     17       2.00000        -161.007830        -4381.24597
     18       2.00000        -161.007830        -4381.24597
     19       2.00000        -161.007830        -4381.24597
     20       2.00000        -161.007830        -4381.24597
     21       2.00000        -161.007822        -4381.24575
     22       2.00000        -161.007822        -4381.24575
     23       2.00000        -103.312611        -2811.27917
     24       2.00000        -103.312611        -2811.27917
     25       2.00000         -92.333072        -2512.51074
     26       2.00000         -92.333072        -2512.51074
     27       2.00000         -92.333055        -2512.51026
     28       2.00000         -92.333055        -2512.51026
     29       2.00000         -92.333055        -2512.51026
     30       2.00000         -92.333055        -2512.51026
     31       2.00000         -35.527285         -966.74662
     32       2.00000         -35.527285         -966.74662
     33       2.00000         -35.527135         -966.74253
     34       2.00000         -35.527135         -966.74253
     35       2.00000         -29.581809         -804.96197
     36       2.00000         -29.581809         -804.96197
     37       2.00000         -29.581782         -804.96125
     38       2.00000         -29.581782         -804.96125
     39       2.00000         -29.581782         -804.96125
     40       2.00000         -29.581782         -804.96125
     41       2.00000         -29.581666         -804.95810
     42       2.00000         -29.581666         -804.95810
     43       2.00000         -29.581628         -804.95705
     44       2.00000         -29.581628         -804.95705
     45       2.00000         -29.581628         -804.95705
     46       2.00000         -29.581628         -804.95705
     47       2.00000         -20.612696         -560.89999
     48       2.00000         -20.612696         -560.89999
     49       2.00000         -20.612696         -560.89999
     50       2.00000         -20.612696         -560.89999
     51       2.00000         -20.612694         -560.89995
[...]
  | Sum of eigenvalues per atom                           :      -99375.25005909 eV
  | Total energy (T->0) per atom                          :     -162142.76136141 eV  <-- do not rely on this value for anything but (periodic) metals
  | Electronic free energy per atom                       :     -162142.76136141 eV

  atomic forces [eV/Ang]:
  -----------------------
  atom #    1
   Hellmann-Feynman              :  0.101694E-01 -0.742515E-02  0.180331E+00
   Ionic forces                  :  0.000000E+00  0.000000E+00  0.000000E+00
   Multipole                     : -0.145828E-03  0.244815E-03 -0.137688E-01
   Pulay + GGA                   : -0.802236E-02  0.597152E-02 -0.176996E+00
   Van der Waals                 :  0.306918E-03 -0.182150E-03  0.102621E-01
   ----------------------------------------------------------------
   Total forces(   1)            :  0.230808E-02 -0.139096E-02 -0.171708E-03
  atom #    2
   Hellmann-Feynman              : -0.992302E-02  0.759158E-02 -0.180220E+00
   Ionic forces                  :  0.000000E+00  0.000000E+00  0.000000E+00
   Multipole                     :  0.144701E-03 -0.245684E-03  0.137676E-01
   Pulay + GGA                   :  0.783222E-02 -0.610438E-02  0.176913E+00
   Van der Waals                 : -0.306908E-03  0.182144E-03 -0.102620E-01
   ----------------------------------------------------------------
   Total forces(   2)            : -0.225301E-02  0.142366E-02  0.198457E-03
  atom #    3
   Hellmann-Feynman              :  0.814236E-03 -0.271420E-02 -0.684728E+00
   Ionic forces                  :  0.000000E+00  0.000000E+00  0.000000E+00
   Multipole                     :  0.442377E-05  0.480542E-04  0.264086E-01
   Pulay + GGA                   : -0.140742E-02  0.283811E-02  0.740031E+00
   Van der Waals                 :  0.134384E-03 -0.798690E-04 -0.843254E-01
   ----------------------------------------------------------------
   Total forces(   3)            : -0.454376E-03  0.921012E-04 -0.261326E-02
  atom #    4
   Hellmann-Feynman              :  0.560833E-02 -0.155888E-02  0.915947E+00
   Ionic forces                  :  0.000000E+00  0.000000E+00  0.000000E+00
   Multipole                     :  0.118600E-05 -0.338637E-04  0.371802E-01
   Pulay + GGA                   : -0.666220E-02  0.230054E-02 -0.102416E+01
   Van der Waals                 : -0.181553E-03  0.105734E-03  0.723431E-01
   ----------------------------------------------------------------
   Total forces(   4)            : -0.123423E-02  0.813535E-03  0.130674E-02
  atom #    5
   Hellmann-Feynman              : -0.801383E-03  0.272748E-02  0.684709E+00
   Ionic forces                  :  0.000000E+00  0.000000E+00  0.000000E+00
   Multipole                     : -0.410672E-05 -0.478949E-04 -0.264089E-01
   Pulay + GGA                   :  0.136656E-02 -0.287227E-02 -0.740043E+00
   Van der Waals                 : -0.134392E-03  0.798579E-04  0.843254E-01
   ----------------------------------------------------------------
   Total forces(   5)            :  0.426678E-03 -0.112828E-03  0.258269E-02
  atom #    6
   Hellmann-Feynman              : -0.559874E-02  0.157900E-02 -0.915938E+00
   Ionic forces                  :  0.000000E+00  0.000000E+00  0.000000E+00
   Multipole                     : -0.918146E-06  0.340912E-04 -0.371802E-01
   Pulay + GGA                   :  0.662372E-02 -0.235891E-02  0.102417E+01
   Van der Waals                 :  0.181551E-03 -0.105717E-03 -0.723433E-01
   ----------------------------------------------------------------
   Total forces(   6)            :  0.120561E-02 -0.851532E-03 -0.129510E-02


  Analytical stress tensor components [eV]         xx                  yy                  zz                  xy                  xz                  yz
  -----------------------------------------------------------------------------------------------------------------------------------------------------------
    Nuclear Hellmann-Feynman      :     0.3091301225E+02    0.3089804391E+02   -0.1947877085E+03   -0.1278855101E-01    0.2242050981E-01   -0.1464297771E-01
    Multipole Hellmann-Feynman    :    -0.1004170579E+03   -0.1004401202E+03   -0.3406062364E+03   -0.1733692864E-01    0.4293012943E-01   -0.2763345060E-01
    On-site Multipole corrections :    -0.5545169128E+01   -0.5545723880E+01   -0.5545513550E+01   -0.5417362461E-06    0.2706523461E-06    0.2141201480E-04
    Strain deriv. of the orbitals :     0.7263084776E+02    0.7266878266E+02    0.5400225983E+03    0.3000451030E-01   -0.4894977990E-01    0.3143111014E-01
    vdW correction   :     0.2449347722E+01    0.2403832607E+01    0.1206920829E+01   -0.3947387789E-01    0.1109880346E-03   -0.7143702933E-04
  -----------------------------------------------------------------------------------------------------------------------------------------------------------
  Sum of all contributions        :     0.3098068105E-01   -0.1518493265E-01    0.2900606731E+00   -0.3959538897E-01    0.1651211803E-01   -0.1089534318E-01

  +-------------------------------------------------------------------+
  |              Analytical stress tensor - Symmetrized               |
  |                  Cartesian components [eV/A**3]                   |
  +-------------------------------------------------------------------+
  |                x                y                z                |
  |                                                                   |
  |  x         0.00002924      -0.00003738       0.00001559           |
  |  y        -0.00003738      -0.00001433      -0.00001028           |
  |  z         0.00001559      -0.00001028       0.00027380           |
  |                                                                   |
  |  Pressure:      -0.00009624   [eV/A**3]                           |
  |                                                                   |
  +-------------------------------------------------------------------+

 * Warning: Stress tensor is anisotropic. Be aware that pressure is an isotropic quantity.

  Timings for VdW correction (Tkatchenko-Scheffler 2009 or later):
  | CPU time:        1.500 s, Wall clock time:        1.495 s.
  Removing unitary transformations (pure translations, rotations) from forces on atoms.
  Atomic forces before filtering:
  | Net force on center of mass :  -0.124275E-05 -0.260246E-04  0.781597E-05 eV/A
  Removing unitary transformations (rotations) from forces on lattice.
  Lattice forces before filtering:
  | Net torque relative to origin:  -0.105826E-19 -0.100312E-20  0.235088E-40 eV
  Atomic forces after filtering:
  | Net force on center of mass :   0.174225E-18  0.348449E-18  0.348449E-18 eV/A
  Lattice forces after filtering:
  | Net torque relative to origin:  -0.105826E-19 -0.100312E-20  0.235088E-40 eV

  Energy and forces in a compact form:
  | Total energy uncorrected      :         -0.972856568168449E+06 eV
  | Total energy corrected        :         -0.972856568168449E+06 eV  <-- do not rely on this value for anything but (periodic) metals
  | Electronic free energy        :         -0.972856568168449E+06 eV
  Total atomic forces (unitary forces cleaned) [eV/Ang]:
  |   1          0.230829080915831E-02         -0.138662456807175E-02         -0.173010427532703E-03
  |   2         -0.225279882367794E-02          0.142799923266743E-02          0.197154764070735E-03
  |   3         -0.454169039878330E-03          0.964386443500182E-04         -0.261456413857574E-02
  |   4         -0.123402787184641E-02          0.817872395801732E-03          0.130543660329619E-02
  |   5          0.426885494845299E-03         -0.108490745528631E-03          0.258138359132564E-02
  |   6          0.120581943139908E-02         -0.847194959218806E-03         -0.129640039258413E-02

  ------------------------------------ 
  Start decomposition of the XC Energy 
  ------------------------------------ 
  X and C from original XC functional choice 
  Hartree-Fock Energy :          0.000000000 Ha              0.000000000 eV
  X Energy            :       -940.253494693 Ha         -25585.599371555 eV
  C Energy            :        -15.715268668 Ha           -427.634218239 eV
  Total XC Energy     :       -955.968763361 Ha         -26013.233589794 eV
  ------------------------------------ 
  LDA X and C from self-consistent density 
  X Energy LDA        :       -896.670484771 Ha         -24399.645330896 eV
  C Energy LDA        :        -27.827863785 Ha           -757.234701271 eV
  ------------------------------------ 
  End decomposition of the XC Energy 
  ------------------------------------ 

------------------------------------------------------------
  Relaxation / MD: End force evaluation.       :  max(cpu_time)    wall_clock(cpu1)
  | Time for this force evaluation             :      125.516 s         125.982 s

------------------------------------------------------------
  Geometry optimization: Attempting to predict improved coordinates.

  +-------------------------------------------------------------------+
  | Generalized derivatives on lattice vectors [eV/A]                 |
  +-------------------------------------------------------------------+
  |lattice_vector       0.00232169      -0.01382742       0.00292251  |
  |lattice_vector      -0.01307237      -0.00501329      -0.00359708  |
  |lattice_vector       0.00016512      -0.00010895       0.00290063  |
  +-------------------------------------------------------------------+
  | Forces on lattice vectors cleaned from atomic contributions [eV/A]|
  +-------------------------------------------------------------------+
  |lattice_vector      -0.00435975       0.01525146      -0.00019562  |
  |lattice_vector       0.01511011       0.00358940       0.00086945  |
  |lattice_vector       0.00000020       0.00002756      -0.00259457  |
  +-------------------------------------------------------------------+
  | Projected forces for shape relaxation  [eV/A]                     |
  +-------------------------------------------------------------------+
  |lattice_vector      -0.00435975      -0.00000000      -0.00000000  |
  |lattice_vector       0.00222327      -0.00385082       0.00000000  |
  |lattice_vector      -0.00000000       0.00000000      -0.00259457  |
  +-------------------------------------------------------------------+
  Removing unitary transformations (pure translations, rotations) from forces on atoms.
  Atomic forces before filtering:
  | Net force on center of mass :   0.174225E-18  0.348449E-18  0.348449E-18 eV/A
  Removing unitary transformations (rotations) from forces on lattice.
  Lattice forces before filtering:
  | Net torque relative to origin:   0.000000E+00  0.639737E-36 -0.147513E-17 eV
  Atomic forces after filtering:
  | Net force on center of mass :   0.174225E-18  0.174225E-18  0.000000E+00 eV/A
  Lattice forces after filtering:
  | Net torque relative to origin:   0.000000E+00  0.639737E-36 -0.147513E-17 eV
  || Forces on lattice vectors || =   0.435975E-02 eV/A.
  Net remaining forces (excluding translations, rotations) in present geometry:
  Maximum force component is  0.435975E-02 eV/A.
  Present geometry is converged.

------------------------------------------------------------
  Final atomic structure:
                         x [A]             y [A]             z [A]
  lattice_vector         3.49757223        0.00000000        0.00000000
  lattice_vector        -1.74875772        3.02893723       -0.00000000
  lattice_vector         0.00000000       -0.00000000       99.99936076

            atom        -0.00318703        2.02134691        3.49937898  Mo
            atom         1.75199890        1.00758857       10.47062040  Mo
            atom         0.00333660        2.01716535       12.29380450  Te
            atom         1.74591653        1.01150064        5.32785673  Te
            atom         1.74547906        1.01177146        1.67619743  Te
            atom         0.00289946        2.01743875        8.64214196  Te

  Fractional coordinates:
                         L1                L2                L3
       atom_frac         0.33275600        0.66734526        0.03499401  Mo
       atom_frac         0.66724295        0.33265416        0.10470687  Mo
       atom_frac         0.33393093        0.66596473        0.12293883  Te
       atom_frac         0.66614970        0.33394573        0.05327891  Te
       atom_frac         0.66606933        0.33403514        0.01676208  Te
       atom_frac         0.33385108        0.66605499        0.08642197  Te
------------------------------------------------------------

------------------------------------------------------------------------------
  Final output of selected total energy values:

  The following output summarizes some interesting total energy values
  at the end of a run (AFTER all relaxation, molecular dynamics, etc.).

  | Total energy of the DFT / Hartree-Fock s.c.f. calculation      :        -972856.568168449 eV
  | Final zero-broadening corrected energy (caution - metals only) :        -972856.568168449 eV
  | For reference only, the value of 1 Hartree used in FHI-aims is :             27.211384500 eV

  Before relying on these values, please be sure to understand exactly which
  total energy value is referred to by a given number. Different objects may
  all carry the same name 'total energy'. Definitions:

  Total energy of the DFT / Hartree-Fock s.c.f. calculation:
  | Note that this energy does not include ANY quantities calculated after the
  | s.c.f. cycle, in particular not ANY RPA, MP2, etc. many-body perturbation terms.

  Final zero-broadening corrected energy:
  | For metallic systems only, a broadening of the occupation numbers at the Fermi
  | level can be extrapolated back to zero broadening by an electron-gas inspired
  | formula. For all systems that are not real metals, this value can be
  | meaningless and should be avoided.

------------------------------------------------------------------------------
  Methods described in the following list of references were used in this FHI-aims run.
  If you publish the results, please make sure to cite these reference if they apply.
  FHI-aims is an academic code, and for our developers (often, Ph.D. students
  and postdocs), scientific credit in the community is essential.
  Thank you for helping us!

  For any use of FHI-aims, please cite:

    Volker Blum, Ralf Gehrke, Felix Hanke, Paula Havu, Ville Havu,
    Xinguo Ren, Karsten Reuter, and Matthias Scheffler
    'Ab initio molecular simulations with numeric atom-centered orbitals'
    Computer Physics Communications 180, 2175-2196 (2009)
    http://dx.doi.org/10.1016/j.cpc.2009.06.022


  For the analytical stress tensor used in your run, please cite:

    Franz Knuth, Christian Carbogno, Viktor Atalla, Volker Blum, Matthias Scheffler
    'All-electron formalism for total energy strain derivatives and
    stress tensor components for numeric atom-centered orbitals'
    Computer Physics Communications 190, 33-50 (2015).
    http://dx.doi.org/10.1016/j.cpc.2015.01.003


  The scalable eigensolver library ELPA was used in your run.
  ELPA is essential especially for large systems on hundreds or thousands of CPUs.
  For ELPA, please cite:

    Andreas Marek, Volker Blum, Rainer Johanni, Ville Havu, Bruno Lang,
    Thomas Auckenthaler, Alexander Heinecke, Hans-Joachim Bungartz, and Hermann Lederer,
    'The ELPA Library - Scalable Parallel Eigenvalue Solutions
    for Electronic Structure Theory and Computational Science'
    The Journal of Physics: Condensed Matter 26, 213201 (2014).
    http://dx.doi.org/10.1088/0953-8984/26/21/213201


  The ELSI infrastructure was used in your run to solve the Kohn-Sham electronic structure.
  Please check out http://elsi-interchange.org to learn more.
  If scalability is important for your project, please acknowledge ELSI by citing:

    V. W-z. Yu, F. Corsetti, A. Garcia, W. P. Huhn, M. Jacquelin, W. Jia,
    B. Lange, L. Lin, J. Lu, W. Mi, A. Seifitokaldani, A. Vazquez-Mayagoitia,
    C. Yang, H. Yang, and V. Blum
    'ELSI: A unified software interface for Kohn-Sham electronic structure solvers'
    Computer Physics Communications 222, 267-285 (2018).
    http://dx.doi.org/10.1016/j.cpc.2017.09.007


  For the real-space grid partitioning and parallelization used in this calculation, please cite:

    Ville Havu, Volker Blum, Paula Havu, and Matthias Scheffler,
    'Efficient O(N) integration for all-electron electronic structure calculation'
    'using numerically tabulated basis functions'
    Journal of Computational Physics 228, 8367-8379 (2009).
    http://dx.doi.org/10.1016/j.jcp.2009.08.008

  Of course, there are many other important community references, e.g., those cited in the
  above references. Our list is limited to references that describe implementations in the
  FHI-aims code. The reason is purely practical (length of this list) - please credit others as well.

   One or more s.c.f. cycles took more than 50 s.c.f. iterations.
   It might be worth adjusting your convergence settings. For example,
   metals need a larger broadening and a smaller "charge_mix_param" value than semiconductors.

------------------------------------------------------------
          Leaving FHI-aims.
          Date     :  20191127, Time     :  223904.281

          Computational steps:
          | Number of self-consistency cycles          :          185
          | Number of SCF (re)initializations          :            8
          | Number of relaxation steps                 :            7

          Detailed time accounting                     :  max(cpu_time)    wall_clock(cpu1)
          | Total time                                 :     1276.856 s        1275.970 s
          | Preparation time                           :        0.556 s           0.553 s
          | Boundary condition initalization           :        7.744 s           7.718 s
          | Grid partitioning                          :        1.604 s           1.593 s
          | Preloading free-atom quantities on grid    :        0.684 s           0.672 s
          | Free-atom superposition energy             :        0.108 s           0.096 s
          | Total time for integrations                :      216.880 s         216.320 s
          | Total time for solution of K.-S. equations :       96.904 s          96.563 s
          | Total time for EV reorthonormalization     :        0.772 s           0.579 s
          | Total time for density & force components  :      875.880 s         874.756 s
          | Total time for mixing & preconditioning    :        9.748 s           9.598 s
          | Total time for Hartree multipole update    :        0.760 s           0.483 s
          | Total time for Hartree multipole sum       :       54.408 s          53.985 s
          | Total time for total energy evaluation     :        0.744 s           0.160 s
          | Total time for scaled ZORA corrections     :        0.000 s           0.000 s
          | Total time for vdW correction              :       11.840 s          11.810 s

          Partial memory accounting:
          | Residual value for overall tracked memory usage across tasks :           0.000 MB (should be 0.000 MB)
          | Peak values for overall tracked memory usage (after allocating wave_pulay):
          |   Minimum:      132.211 MB (on task 17)
          |   Maximum:      145.336 MB (on task 13)
          |   Average:      137.763 MB
          | Largest tracked array allocation (density_matrix_con):
          |   Minimum:       30.047 MB (on task 17)
          |   Maximum:       35.415 MB (on task 13)
          |   Average:       32.676 MB
          Note:  These values currently only include a subset of arrays which are explicitly tracked.
          The "true" memory usage will be greater.

          Have a nice day.
------------------------------------------------------------
