  MPI-parallelism will be employed.
------------------------------------------------------------
          Invoking FHI-aims ...
          Version 171221_1
          Compiled on 2018/11/06 at 11:18:49 on host headnode.

          When using FHI-aims, please cite the following reference:

          Volker Blum, Ralf Gehrke, Felix Hanke, Paula Havu,
          Ville Havu, Xinguo Ren, Karsten Reuter, and Matthias Scheffler,
          'Ab Initio Molecular Simulations with Numeric Atom-Centered Orbitals',
          Computer Physics Communications 180, 2175-2196 (2009)

          For any questions about FHI-aims, please visit the aimsclub website
          with its forums and wiki. Contributions to both the forums and the
          wiki are warmly encouraged - they are for you, and everyone is welcome there.

------------------------------------------------------------



  Date     :  20191127, Time     :  215950.105
  Time zero on CPU 1             :   0.332000000000000E+00  s.
  Internal wall clock time zero  :           344123990.105  s.

  FHI-aims created a unique identifier for this run for later identification
  aims_uuid : D48A0166-DB97-4B17-A290-FE6382F22C78

  Using       80 parallel tasks.
  Task        0 on host t017 reporting.
  Task        1 on host t017 reporting.
  Task        2 on host t017 reporting.
  Task        3 on host t017 reporting.
  Task        4 on host t017 reporting.
  Task        5 on host t017 reporting.
  Task        6 on host t017 reporting.
  Task        7 on host t017 reporting.
  Task        8 on host t017 reporting.
  Task        9 on host t017 reporting.
  Task       10 on host t017 reporting.
  Task       11 on host t017 reporting.
  Task       12 on host t017 reporting.
  Task       13 on host t017 reporting.
  Task       14 on host t017 reporting.
  Task       15 on host t017 reporting.
  Task       16 on host t017 reporting.
  Task       17 on host t017 reporting.
  Task       18 on host t017 reporting.
  Task       19 on host t017 reporting.
  Task       20 on host t011 reporting.
  Task       21 on host t011 reporting.
  Task       22 on host t011 reporting.
  Task       23 on host t011 reporting.
  Task       24 on host t011 reporting.
  Task       25 on host t011 reporting.
  Task       26 on host t011 reporting.
  Task       27 on host t011 reporting.
  Task       28 on host t011 reporting.
  Task       29 on host t011 reporting.
  Task       30 on host t011 reporting.
  Task       31 on host t011 reporting.
  Task       32 on host t011 reporting.
  Task       33 on host t011 reporting.
  Task       34 on host t011 reporting.
  Task       35 on host t011 reporting.
  Task       36 on host t011 reporting.
  Task       37 on host t011 reporting.
  Task       38 on host t011 reporting.
  Task       39 on host t011 reporting.
  Task       40 on host t010 reporting.
  Task       41 on host t010 reporting.
  Task       42 on host t010 reporting.
  Task       43 on host t010 reporting.
  Task       44 on host t010 reporting.
  Task       45 on host t010 reporting.
  Task       46 on host t010 reporting.
  Task       47 on host t010 reporting.
  Task       48 on host t010 reporting.
  Task       49 on host t010 reporting.
  Task       50 on host t010 reporting.
  Task       51 on host t010 reporting.
  Task       52 on host t010 reporting.
  Task       53 on host t010 reporting.
  Task       54 on host t010 reporting.
  Task       55 on host t010 reporting.
  Task       56 on host t010 reporting.
  Task       57 on host t010 reporting.
  Task       58 on host t010 reporting.
  Task       59 on host t010 reporting.
  Task       60 on host t009 reporting.
  Task       61 on host t009 reporting.
  Task       62 on host t009 reporting.
  Task       63 on host t009 reporting.
  Task       64 on host t009 reporting.
  Task       65 on host t009 reporting.
  Task       66 on host t009 reporting.
  Task       67 on host t009 reporting.
  Task       68 on host t009 reporting.
  Task       69 on host t009 reporting.
  Task       70 on host t009 reporting.
  Task       71 on host t009 reporting.
  Task       72 on host t009 reporting.
  Task       73 on host t009 reporting.
  Task       74 on host t009 reporting.
  Task       75 on host t009 reporting.
  Task       76 on host t009 reporting.
  Task       77 on host t009 reporting.
  Task       78 on host t009 reporting.
  Task       79 on host t009 reporting.

  Performing system and environment tests:
  | Environment variable OMP_NUM_THREADS correctly set to 1.
  | Stacksize not measured: no C compiler
  | Checking for scalapack...
  | Testing pdtran()...
  | All pdtran() tests passed.

  Obtaining array dimensions for all initial allocations:
  
  -----------------------------------------------------------------------
  Parsing control.in (first pass over file, find array dimensions only).
  The contents of control.in will be repeated verbatim below
  unless switched off by setting 'verbatim_writeout .false.' .
  in the first line of control.in .
  -----------------------------------------------------------------------
  
  #===============================================================================
  # FHI-aims file: ./control.in
  # Created using the Atomic Simulation Environment (ASE)
  # Wed Nov 27 20:14:06 2019
  #
  # List of parameters used to initialize the calculator:
  #     spin : none
  #     adjust_scf : once 2
  #     relativistic : ('atomic_zora', 'scalar')
  #     k_grid : [18, 18, 1]
  #     species_dir : /chemsoft/FHI-aims/stable/species_defaults/tight
  #     xc : pbe
  #===============================================================================
  spin                               none
  adjust_scf                         once 2
  ### geometry optimisation section
  relax_geometry    bfgs    1E-2
  relax_unit_cell       fixed_angles
  relativistic                       atomic_zora scalar
  k_grid                             18 18 1
  xc                                 pbe
  many_body_dispersion
  #===============================================================================
  
  ################################################################################
  #
  #  FHI-aims code project
  # Volker Blum, Fritz Haber Institute Berlin, 2009
  #
  #  Suggested "tight" defaults for Mo atom (to be pasted into control.in file)
  #
  ################################################################################
    species        Mo
  #     global species definitions
      nucleus             42
      mass                95.94
  #
      l_hartree           6
  #
      cut_pot             4.0  2.0  1.0
      basis_dep_cutoff    1e-4
  #
      radial_base         59 7.0
      radial_multiplier   2
      angular_grids specified
        division   0.3117   50
        division   0.6750  110
        division   1.0351  194
        division   1.2073  302
        division   1.6402  434
  #      division   1.9185  590
  #      division   2.0237  770
  #      division   2.0980  974
  #      division   2.7972 1202
  #      outer_grid  974
        outer_grid  434
  ################################################################################
  #
  #  Definition of "minimal" basis
  #
  ################################################################################
  #     valence basis states
      valence      5  s   1.
      valence      4  p   6.
      valence      4  d   5.
  #     ion occupancy
      ion_occ     5  s   0.
      ion_occ     4  p   6.
      ion_occ     4  d   4.
  ################################################################################
  #
  #  Suggested additional basis functions. For production calculations,
  #  uncomment them one after another (the most important basis functions are
  #  listed first).
  #
  #  Constructed for dimers: 1.675 A, 1.9 A, 2.375 A, 3.00 A, 4.00 A
  #
  ################################################################################
  #  "First tier"  - max. impr. -711.23  meV, min. impr. -21.07 meV
       hydro 4 f 8.4
       hydro 3 d 2.8
       ionic 5 p auto
       hydro 5 g 12
       ionic 5 s auto
  #  "Second tier" - max. impr. -39.38  meV, min. impr. -2.68 meV
       hydro 4 f 12.4
       hydro 3 d 3.3
       hydro 6 h 17.2
       hydro 4 f 7.6
       hydro 3 p 3.0
       hydro 1 s 0.65
  #  "Third tier"  - max. impr. -5.50 meV, min. impr. -0.47 meV
  #     hydro 4 f 29.2
  #     hydro 5 g 11.2
  #     hydro 3 d 6.8
  #     hydro 6 h 14.8
  #     hydro 2 p 2.3
  #     hydro 4 s 3.8
  #  "Fourth tier"  - max. impr. -0.58 meV, min. impr. -0.19 meV
  #     hydro 5 f 6.8
  #     hydro 5 d 14.8
  #     hydro 6 s 7.8
  #     hydro 5 g 20.8
  #     hydro 5 d 10.4
  #     hydro 5 p 9.8
  #  Further functions - -0.17 meV and below
  #     hydro 5 d 3.2
  ################################################################################
  #
  #  FHI-aims code project
  # Volker Blum, Fritz Haber Institute Berlin, 2009
  #
  #  Suggested "tight" defaults for Se atom (to be pasted into control.in file)
  #
  ################################################################################
    species        Se
  #     global species definitions
      nucleus             34
      mass                78.96
  #
      l_hartree           6
  #
      cut_pot             4.0          2.0  1.0
      basis_dep_cutoff    1e-4
  #
      radial_base         55 7.0
      radial_multiplier   2
      angular_grids       specified
        division   0.0830  110
        division   0.1357  194
        division   0.7377  302
        division   0.8610  434
  #      division   0.9640  590
  #      division   1.0773  770
  #      division   2.5539  974
  #      outer_grid  974
        outer_grid  434
  ################################################################################
  #
  #  Definition of "minimal" basis
  #
  ################################################################################
  #     valence basis states
      valence      4  s   2.
      valence      4  p   4.
      valence      3  d  10.
  #     ion occupancy
      ion_occ      4  s   1.
      ion_occ      4  p   3.
      ion_occ      3  d  10.
  ################################################################################
  #
  #  Suggested additional basis functions. For production calculations,
  #  uncomment them one after another (the most important basis functions are
  #  listed first).
  #
  #  Constructed for dimers: 1.85 A, 2.15 A, 2.50 A, 3.00 A, 4.00 A
  #
  ################################################################################
  #  "First tier" - improvements: -336.21 meV to -36.85 meV
       hydro 3 d 4.3
       hydro 2 p 1.6
       hydro 4 f 7.2
       ionic 4 s auto
  #  "Second tier" - improvements: -14.39 meV to -1.49 meV
       hydro 5 g 10.4
       hydro 4 p 4.5
       hydro 4 d 6.2
       hydro 4 f 11.2
       hydro 1 s 0.65
       hydro 6 h 15.2
  #  "Third tier" - improvements: -0.46 meV and below
  #     hydro 5 g 14.4
  #     ionic 4 d auto
  #     hydro 4 f 22.4
  #     hydro 5 f 7.4
  #     hydro 5 p 8
  #     hydro 5 s 9.4
  #  "Fourth tier" - improvements: -0.12 meV and below
  #     hydro 5 d 11.6
  #     hydro 6 h 18
  #     hydro 4 p 4
  #     hydro 5 f 16
  #     hydro 4 s 3.9
  #
  #
  
  -----------------------------------------------------------------------
  Completed first pass over input file control.in .
  -----------------------------------------------------------------------
  
  
  -----------------------------------------------------------------------
  Parsing geometry.in (first pass over file, find array dimensions only).
  The contents of geometry.in will be repeated verbatim below
  unless switched off by setting 'verbatim_writeout .false.' .
  in the first line of geometry.in .
  -----------------------------------------------------------------------
  
  #=======================================================
  # FHI-aims file: ./geometry.in
  # Created using the Atomic Simulation Environment (ASE)
  # Wed Nov 27 20:14:06 2019
  #=======================================================
  lattice_vector 3.2900000000000000 0.0000000000000000 0.0000000000000000
  lattice_vector -1.6450000000000000 2.8492235799999999 0.0000000000000000
  lattice_vector 0.0000000000000000 0.0000000000000000 100.0000000000000000
  atom -0.0000000000000000 1.8994823900000000 3.2275000000000000 Mo
  atom 1.6450000000000000 0.9497411900000000 9.6824999999999992 Mo
  atom -0.0000000000000000 1.8994823900000000 11.3414350000000006 Se
  atom 1.6450000000000000 0.9497411900000000 4.8864349999999996 Se
  atom 1.6450000000000000 0.9497411900000000 1.5685650000000000 Se
  atom -0.0000000000000000 1.8994823900000000 8.0235649999999996 Se
  
  -----------------------------------------------------------------------
  Completed first pass over input file geometry.in .
  -----------------------------------------------------------------------
  

  Basic array size parameters:
  | Number of species                 :        2
  | Number of atoms                   :        6
  | Number of lattice vectors         :        3
  | Max. basis fn. angular momentum   :        5
  | Max. atomic/ionic basis occupied n:        5
  | Max. number of basis fn. types    :        3
  | Max. radial fns per species/type  :       10
  | Max. logarithmic grid size        :     1436
  | Max. radial integration grid size :      119
  | Max. angular integration grid size:      434
  | Max. angular grid division number :        8
  | Radial grid for Hartree potential :     1436
  | Number of spin channels           :        1

------------------------------------------------------------
          Reading file control.in.
------------------------------------------------------------
  Spin treatment: No spin polarisation.
  S.C.F. convergence parameters will be adjusted in iteration number     2 of the first full s.c.f. cycle only.
  Geometry relaxation: Modified BFGS - TRM (trust radius method, i.e., trusted quadratic extrapolation).
  Convergence accuracy for geometry relaxation: Maximum force <   0.100000E-01 eV/A.
  Scalar relativistic treatment of kinetic energy: on-site free-atom approximation to ZORA.
  Found k-point grid:        18        18         1
  XC: Using PBE gradient-corrected functionals.
  Using the default MBD implementation with analytical forces
 
  Reading configuration options for species Mo                  .
  | Found nuclear charge :  42.0000
  | Found atomic mass :    95.9400000000000      amu
  | Found l_max for Hartree potential  :   6
  | Found cutoff potl. onset [A], width [A], scale factor :    4.00000    2.00000    1.00000
  | Threshold for basis-dependent cutoff potential is   0.100000E-03
  | Found data for basic radial integration grid :    59 points, outermost radius =    7.000 A
  | Found multiplier for basic radial grid :   2
  | Found angular grid specification: user-specified.
  | Specified grid contains     6 separate shells.
  | Check grid settings after all constraints further below.
  | Found free-atom valence shell :  5 s   1.000
  | Found free-atom valence shell :  4 p   6.000
  | Found free-atom valence shell :  4 d   5.000
  | Found free-ion valence shell :  5 s   0.000
  | Found free-ion valence shell :  4 p   6.000
  | Found free-ion valence shell :  4 d   4.000
  | Found hydrogenic basis function :  4 f   8.400
  | Found hydrogenic basis function :  3 d   2.800
  | Found ionic basis function :  5 p , default cutoff radius.
  | Found hydrogenic basis function :  5 g  12.000
  | Found ionic basis function :  5 s , default cutoff radius.
  | Found hydrogenic basis function :  4 f  12.400
  | Found hydrogenic basis function :  3 d   3.300
  | Found hydrogenic basis function :  6 h  17.200
  | Found hydrogenic basis function :  4 f   7.600
  | Found hydrogenic basis function :  3 p   3.000
  | Found hydrogenic basis function :  1 s   0.650
  Species Mo                  : Missing cutoff potential type.
  Defaulting to exp(1/x)/(1-x)^2 type cutoff potential.
  Species Mo: No 'logarithmic' tag. Using default grid for free atom:
  | Default logarithmic grid data [bohr] : 0.1000E-03 0.1000E+03 0.1012E+01
  | Will include ionic basis functions of  2.0-fold positive Mo                   ion.
  Species Mo: On-site basis accuracy parameter (for Gram-Schmidt orthonormalisation) not specified.
  Using default value basis_acc =  0.1000000E-03.
  Species Mo                  : Using default innermost maximum threshold i_radial=  2 for radial functions.
  Species Mo                  : Default cutoff onset for free atom density etc. : 0.40000000E+01 AA.
  Species Mo                  : Basic radial grid will be enhanced according to radial_multiplier =   2, to contain   119 grid points.
 
  Reading configuration options for species Se                  .
  | Found nuclear charge :  34.0000
  | Found atomic mass :    78.9600000000000      amu
  | Found l_max for Hartree potential  :   6
  | Found cutoff potl. onset [A], width [A], scale factor :    4.00000    2.00000    1.00000
  | Threshold for basis-dependent cutoff potential is   0.100000E-03
  | Found data for basic radial integration grid :    55 points, outermost radius =    7.000 A
  | Found multiplier for basic radial grid :   2
  | Found angular grid specification: user-specified.
  | Specified grid contains     5 separate shells.
  | Check grid settings after all constraints further below.
  | Found free-atom valence shell :  4 s   2.000
  | Found free-atom valence shell :  4 p   4.000
  | Found free-atom valence shell :  3 d  10.000
  | Found free-ion valence shell :  4 s   1.000
  | Found free-ion valence shell :  4 p   3.000
  | Found free-ion valence shell :  3 d  10.000
  | Found hydrogenic basis function :  3 d   4.300
  | Found hydrogenic basis function :  2 p   1.600
  | Found hydrogenic basis function :  4 f   7.200
  | Found ionic basis function :  4 s , default cutoff radius.
  | Found hydrogenic basis function :  5 g  10.400
  | Found hydrogenic basis function :  4 p   4.500
  | Found hydrogenic basis function :  4 d   6.200
  | Found hydrogenic basis function :  4 f  11.200
  | Found hydrogenic basis function :  1 s   0.650
  | Found hydrogenic basis function :  6 h  15.200
  Species Se                  : Missing cutoff potential type.
  Defaulting to exp(1/x)/(1-x)^2 type cutoff potential.
  Species Se: No 'logarithmic' tag. Using default grid for free atom:
  | Default logarithmic grid data [bohr] : 0.1000E-03 0.1000E+03 0.1012E+01
  | Will include ionic basis functions of  2.0-fold positive Se                   ion.
  Species Se: On-site basis accuracy parameter (for Gram-Schmidt orthonormalisation) not specified.
  Using default value basis_acc =  0.1000000E-03.
  Species Se                  : Using default innermost maximum threshold i_radial=  2 for radial functions.
  Species Se                  : Default cutoff onset for free atom density etc. : 0.40000000E+01 AA.
  Species Se                  : Basic radial grid will be enhanced according to radial_multiplier =   2, to contain   111 grid points.
  | MBD: Using the same k-grid sampling as DFT
 
  Finished reading input file 'control.in'. Consistency checks are next.
 
  MPI_IN_PLACE appears to work with this MPI implementation.
  | Keeping use_mpi_in_place .true. (see manual).
  Target number of points in a grid batch is not set. Defaulting to  100
  Method for grid partitioning is not set. Defaulting to parallel hash+maxmin partitioning.
  Batch size limit is not set. Defaulting to    200
  By default, will store active basis functions for each batch.
  If in need of memory, prune_basis_once .false. can be used to disable this option.
  communication_type for Hartree potential was not specified.
  Defaulting to calc_hartree .
  Defaulting to Pulay charge density mixer.
  Pulay mixer: Number of relevant iterations not set.
  Defaulting to    8 iterations.
  Pulay mixer: Number of initial linear mixing iterations not set.
  Defaulting to    0 iterations.
  Work space size for distributed Hartree potential not set.
  Defaulting to   0.200000E+03 MB.
  Mixing parameter for charge density mixing has not been set.
  Using default: charge_mix_param =     0.0500.
  The mixing parameter will be adjusted in iteration number     2 of the first full s.c.f. cycle only.
  Algorithm-dependent basis array size parameters:
  | n_max_pulay                         :        8
 * Notice: The s.c.f. convergence criterion sc_accuracy_rho was not provided.
 * We used to stop in this case, and ask the user to provide reasonable
 * scf convergence criteria. However, this led some users to employ criteria
 * that led to extremely long run times, e.g., for simple relaxation.
 * We now preset a default value for sc_accuracy_rho if it is not set.
 * You may still wish to check if this setting is too tight or too loose for your needs.
 * Based on n_atoms, FHI-aims chose sc_accuracy_rho =  0.100000E-05 .
  Maximum number of self-consistency iterations not provided.
  Presetting  1000 iterations.
  Presetting      1001 iterations before the initial mixing cycle
  is restarted anyway using the sc_init_iter criterion / keyword.
  Presetting a factor      1.000 between actual scf density residual
  and density convergence criterion sc_accuracy_rho below which sc_init_iter
  takes no effect.
 * No s.c.f. convergence criteria (sc_accuracy_*) were provided in control.in.
 * The run will proceed with a reasonable default guess, but please check whether.
 * the s.c.f. cycles seem to take too much or too little time.
  No maximum number of relaxation steps, defaulting to     1000
  Default initial Hessian is Lindh matrix (thres = 15.00) plus  0.200000E+01 eV/A^2 times unity.
  No maximum energy tolerance for TRM/BFGS moves, defaulting to   0.200000E-03
  No harmonic length scale. Defaulting to   0.250000E-01 A.
  No trust radius initializer. Defaulting to   0.200000E+00 A.
  Unit cell relaxation: Restricted relaxation with fixed angles between lattice vectors.
  Unit cell relaxation: Analytical stress will be used.
  Analytical stress will be computed.
  Analytical stress calculation: Only the upper triangle is calculated.
                                 Final output is symmetrized.
  Analytical stress calculation: scf convergence accuracy of stress not set.
                                 Analytical stress self-consistency will not be checked explicitly.
                                 Be sure to set other criteria like sc_accuracy_rho tight enough.
  Force calculation: scf convergence accuracy of forces not set.
  Defaulting to 'sc_accuracy_forces not_checked'.
  Handling of forces: Unphysical translation and rotation will be removed from forces.
  No accuracy limit for integral partition fn. given. Defaulting to  0.1000E-14.
  No threshold value for u(r) in integrations given. Defaulting to  0.1000E-05.
  No occupation type (smearing scheme) given. Defaulting to Gaussian broadening, width =  0.1000E-01 eV.
  The width will be adjusted in iteration number     2 of the first full s.c.f. cycle only.
  S.C.F. convergence parameters will be adjusted in iteration number     2 of the first full s.c.f. cycle only.
  No accuracy for occupation numbers given. Defaulting to  0.1000E-12.
  No threshold value for occupation numbers given. Defaulting to  0.0000E+00.
  No accuracy for fermi level given. Defaulting to  0.1000E-19.
  Maximum # of iterations to find E_F not set. Defaulting to  200.
  Preferred method for the eigenvalue solver ('KS_method') not specified in 'control.in'.
  Defaulting to serial version, 'lapack_fast', since more k-points than CPUs available.
  Will not use alltoall communication since running on < 1024 CPUs.
  Threshold for basis singularities not set.
  Default threshold for basis singularities:  0.1000E-04
  partition_type (choice of integration weights) for integrals was not specified.
  | Using a version of the partition function of Stratmann and coworkers ('stratmann_smoother').
  | At each grid point, the set of atoms used to build the partition table is smoothly restricted to
  | only those atoms whose free-atom density would be non-zero at that grid point.
  Partitioning for Hartree potential was not defined. Using partition_type for integrals.
  | Adjusted default value of keyword multip_moments_threshold to:       0.10000000E-11
  | This value may affect high angular momentum components of the Hartree potential in periodic systems.
  Angular momentum expansion for Kerker preconditioner not set explicitly.
  | Using default value of   0
  No explicit requirement for turning off preconditioner.
  | By default, it will be turned off when the charge convergence reaches
  | sc_accuracy_rho  =   0.100000E-05
  No special mixing parameter while Kerker preconditioner is on.
  Using default: charge_mix_param =     0.0500.
  No q(lm)/r^(l+1) cutoff set for long-range Hartree potential.
  | Using default value of  0.100000E-09 .
  | Verify using the multipole_threshold keyword.
  Defaulting to new monopole extrapolation.
  Density update method: automatic selection selected.
  Using density matrix based charge density update.
  Using density matrix based charge density update.
  Using packed matrix style: index .
  Geometry relaxation: A file "geometry.in.next_step" is written out by default after each step.
  | This file contains the geometry of the current relaxation step as well as
  | the current Hessian matrix needed to restart the relaxation algorithm.
  | If you do not want part or all of this information, use the keywords
  | "write_restart_geometry" or "hessian_to_restart_geometry" to switch the output off.
  Defaulting to use time-reversal symmetry for k-point grid.
------------------------------------------------------------


------------------------------------------------------------
          Reading geometry description geometry.in.
------------------------------------------------------------
  Input structure read successfully.
  The structure contains        6 atoms,  and a total of        220.000 electrons.

  Input geometry:
  | Unit cell:
  |        3.29000000        0.00000000        0.00000000
  |       -1.64500000        2.84922358        0.00000000
  |        0.00000000        0.00000000      100.00000000
  | Atomic structure:
  |       Atom                x [A]            y [A]            z [A]
  |    1: Species Mo            0.00000000        1.89948239        3.22750000
  |    2: Species Mo            1.64500000        0.94974119        9.68250000
  |    3: Species Se            0.00000000        1.89948239       11.34143500
  |    4: Species Se            1.64500000        0.94974119        4.88643500
  |    5: Species Se            1.64500000        0.94974119        1.56856500
  |    6: Species Se            0.00000000        1.89948239        8.02356500

  Lattice parameters for 3D lattice (in Angstroms) :     3.290000    3.290000  100.000000
  Angle(s) between unit vectors (in degrees)      :    90.000000   90.000000  120.000000

  |

  | The smallest distance between any two atoms is         2.52192360 AA.
  |
  | The first atom of this pair is atom number                      5 .
  | The second atom of this pair is atom number                     1 .
  | Wigner-Seitz cell of the first atom image           1     0     0 .
  | (The Wigner-Seitz cell of the second atom is 0 0 0  by definition.)

  Quantities derived from the lattice vectors:
  | Reciprocal lattice vector 1:  1.909783  1.102614  0.000000
  | Reciprocal lattice vector 2: -0.000000  2.205227  0.000000
  | Reciprocal lattice vector 3:  0.000000  0.000000  0.062832
  | Unit cell volume                               :   0.937395E+03  A^3

  Range separation radius for Ewald summation (hartree_convergence_parameter):      5.00000000 bohr.

  Fractional coordinates:
                         L1                L2                L3
       atom_frac         0.33333333        0.66666667        0.03227500  Mo
       atom_frac         0.66666667        0.33333333        0.09682500  Mo
       atom_frac         0.33333333        0.66666667        0.11341435  Se
       atom_frac         0.66666667        0.33333333        0.04886435  Se
       atom_frac         0.66666667        0.33333333        0.01568565  Se
       atom_frac         0.33333333        0.66666667        0.08023565  Se

  Number of empty states per atom not set in control.in - providing a guess from actual geometry.
  | Total number of empty states used during s.c.f. cycle:       33
  If you use a very high smearing, use empty_states (per atom!) in control.in to increase this value.

  Structure-dependent array size parameters: 
  | Maximum number of distinct radial functions  :       39
  | Maximum number of basis functions            :      446
  | Number of Kohn-Sham states (occupied + empty):      143
------------------------------------------------------------

------------------------------------------------------------
          Preparing all fixed parts of the calculation.
------------------------------------------------------------
  Determining machine precision:
    2.225073858507201E-308
  Setting up grids for atomic and cluster calculations.

  Creating wave function, potential, and density for free atoms.

  Species: Mo

  List of occupied orbitals and eigenvalues:
    n    l              occ      energy [Ha]    energy [eV]
    1    0           2.0000      -745.344654    -20281.8600
    2    0           2.0000      -103.288246     -2810.6162
    3    0           2.0000       -17.516687      -476.6533
    4    0           2.0000        -2.358559       -64.1796
    5    0           1.0000        -0.145159        -3.9500
    2    1           6.0000       -92.308627     -2511.8455
    3    1           6.0000       -13.936005      -379.2180
    4    1           6.0000        -1.408138       -38.3174
    3    2          10.0000        -8.119011      -220.9295
    4    2           5.0000        -0.132984        -3.6187


  Species: Se

  List of occupied orbitals and eigenvalues:
    n    l              occ      energy [Ha]    energy [eV]
    1    0           2.0000      -466.337810    -12689.6975
    2    0           2.0000       -59.202598     -1610.9847
    3    0           2.0000        -7.847116      -213.5309
    4    0           2.0000        -0.634372       -17.2621
    2    1           6.0000       -52.061107     -1416.6548
    3    1           6.0000        -5.620941      -152.9536
    4    1           4.0000        -0.238469        -6.4891
    3    2          10.0000        -1.951949       -53.1152

  Creating fixed part of basis set: Ionic, confined, hydrogenic.
 
  Mo                   ion:

  List of free ionic orbitals and eigenvalues:
    n    l      energy [Ha]    energy [eV]
    1    0      -746.048685    -20301.0176
    2    0      -103.980912     -2829.4646
    3    0       -18.206601      -495.4268
    4    0        -3.040545       -82.7374
    2    1       -93.001013     -2530.6863
    3    1       -14.625827      -397.9890
    4    1        -2.084855       -56.7318
    3    2        -8.808854      -239.7011
    4    2        -0.765435       -20.8285


  List of ionic basis orbitals and eigenvalues:
    n    l      energy [Ha]    energy [eV]    outer radius [A]
    5    1        -0.465587       -12.6693       5.456393
    5    0        -0.650331       -17.6964       5.390095

 
  Mo                   hydrogenic:
 
  List of hydrogenic basis orbitals: 
    n    l      effective z      eigenvalue [eV]  inner max. [A]     outer max. [A]     outer radius [A]   
    4    3         8.400000       -60.0010           1.009788           1.009788           4.487018
    3    2         2.800000       -11.8048           1.687401           1.687401           5.456393
    5    4        12.000000       -78.3687           1.100005           1.100005           4.432498
    4    3        12.400000      -130.7506           0.682864           0.682864           3.428897
    3    2         3.300000       -16.4532           1.439455           1.439455           5.456393
    6    5        17.200000      -111.8085           1.113535           1.113535           4.169676
    4    3         7.600000       -49.1164           1.113535           1.113535           4.828511
    3    1         3.000000       -13.5316           0.528251           2.102736           5.456393
    1    0         0.650000        -5.7375           0.810333           0.810333           5.456393
 
 
  Se                   ion:

  List of free ionic orbitals and eigenvalues:
    n    l      energy [Ha]    energy [eV]
    1    0      -467.261007    -12714.8189
    2    0       -60.104893     -1635.5374
    3    0        -8.743714      -237.9286
    4    0        -1.414053       -38.4783
    2    1       -52.964156     -1441.2280
    3    1        -6.516916      -177.3343
    4    1        -0.961869       -26.1738
    3    2        -2.844511       -77.4031


  List of ionic basis orbitals and eigenvalues:
    n    l      energy [Ha]    energy [eV]    outer radius [A]
    4    0        -1.414046       -38.4782       4.083166

 
  Se                   hydrogenic:
 
  List of hydrogenic basis orbitals: 
    n    l      effective z      eigenvalue [eV]  inner max. [A]     outer max. [A]     outer radius [A]   
    3    2         4.300000       -27.9518           1.103845           1.103845           5.278265
    2    1         1.600000        -8.6828           1.326010           1.326010           5.475439
    4    3         7.200000       -44.0822           1.173422           1.173422           4.965294
    5    4        10.400000       -58.8635           1.278259           1.278259           4.904963
    4    1         4.500000       -16.9509           0.333121           2.727671           5.475439
    4    2         6.200000       -32.6848           0.577455           1.800022           5.408909
    4    3        11.200000      -106.6686           0.755651           0.755651           3.657749
    1    0         0.650000        -5.7375           0.813162           0.813162           5.408909
    6    5        15.200000       -87.3182           1.247385           1.247385           4.614127
 

  Adding cutoff potential to free-atom effective potential.
  Creating atomic-like basis functions for current effective potential.

  Species Mo                  :

  List of atomic basis orbitals and eigenvalues:
    n    l      energy [Ha]    energy [eV]    outer radius [A]
    1    0      -745.344654    -20281.8600       0.247552
    2    0      -103.288246     -2810.6162       0.682864
    3    0       -17.516687      -476.6533       1.626637
    4    0        -2.358559       -64.1796       4.220963
    5    0        -0.145159        -3.9500       5.456393
    2    1       -92.308627     -2511.8455       0.699766
    3    1       -13.936005      -379.2180       1.793761
    4    1        -1.408138       -38.3174       4.828511
    3    2        -8.119011      -220.9295       2.181285
    4    2        -0.132984        -3.6187       5.390095


  Species Se                  :

  List of atomic basis orbitals and eigenvalues:
    n    l      energy [Ha]    energy [eV]    outer radius [A]
    1    0      -466.337810    -12689.6975       0.309561
    2    0       -59.202598     -1610.9847       0.885812
    3    0        -7.847116      -213.5309       2.355489
    4    0        -0.634372       -17.2621       5.214131
    2    1       -52.061107     -1416.6548       0.907737
    3    1        -5.620941      -152.9536       2.694529
    4    1        -0.238469        -6.4891       5.408909
    3    2        -1.951949       -53.1152       4.083166

  Assembling full basis from fixed parts.
  | Species Mo :   atomic orbital   1 s accepted.
  | Species Mo :   atomic orbital   2 s accepted.
  | Species Mo :   atomic orbital   3 s accepted.
  | Species Mo :   atomic orbital   4 s accepted.
  | Species Mo :    ionic orbital   5 s accepted.
  | Species Mo :   atomic orbital   5 s accepted.
  | Species Mo :    hydro orbital   1 s accepted.
  | Species Mo :   atomic orbital   2 p accepted.
  | Species Mo :   atomic orbital   3 p accepted.
  | Species Mo :   atomic orbital   4 p accepted.
  | Species Mo :    ionic orbital   5 p accepted.
  | Species Mo :    hydro orbital   3 p accepted.
  | Species Mo :   atomic orbital   3 d accepted.
  | Species Mo :   atomic orbital   4 d accepted.
  | Species Mo :    hydro orbital   3 d accepted.
  | Species Mo :    hydro orbital   3 d accepted.
  | Species Mo :    hydro orbital   4 f accepted.
  | Species Mo :    hydro orbital   4 f accepted.
  | Species Mo :    hydro orbital   4 f accepted.
  | Species Mo :    hydro orbital   5 g accepted.
  | Species Mo :    hydro orbital   6 h accepted.
  | Species Se :   atomic orbital   1 s accepted.
  | Species Se :   atomic orbital   2 s accepted.
  | Species Se :   atomic orbital   3 s accepted.
  | Species Se :    ionic orbital   4 s accepted.
  | Species Se :   atomic orbital   4 s accepted.
  | Species Se :    hydro orbital   1 s accepted.
  | Species Se :   atomic orbital   2 p accepted.
  | Species Se :   atomic orbital   3 p accepted.
  | Species Se :   atomic orbital   4 p accepted.
  | Species Se :    hydro orbital   2 p accepted.
  | Species Se :    hydro orbital   4 p accepted.
  | Species Se :   atomic orbital   3 d accepted.
  | Species Se :    hydro orbital   3 d accepted.
  | Species Se :    hydro orbital   4 d accepted.
  | Species Se :    hydro orbital   4 f accepted.
  | Species Se :    hydro orbital   4 f accepted.
  | Species Se :    hydro orbital   5 g accepted.
  | Species Se :    hydro orbital   6 h accepted.
 
  Basis size parameters after reduction:
  | Total number of radial functions:       39
  | Total number of basis functions :      446
 
  Per-task memory consumption for arrays in subroutine allocate_ext:
  |          14.349272MB.
  Testing on-site integration grid accuracy.
  |  Species  Function  <phi|h_atom|phi> (log., in eV)  <phi|h_atom|phi> (rad., in eV)
           1        1             -20281.8599610543             -20281.8584300616
           1        2              -2810.6161812280              -2810.6161551921
           1        3               -476.6533163555               -476.6533136395
           1        4                -64.1796433667                -64.1796426456
           1        5                 -3.3691762756                 -3.3691802887
           1        6                  4.4704608512                  4.4699102345
           1        7                 47.6285199283                 47.6283663304
           1        8              -2511.8455406047              -2511.8455385741
           1        9               -379.2179896350               -379.2179882338
           1       10                -38.3173891619                -38.3173886619
           1       11                  0.2493245095                  0.2492931069
           1       12                 12.9899978429                 12.9896957264
           1       13               -220.9295301098               -220.9295297081
           1       14                 -3.6195697699                 -3.6195754704
           1       15                  7.1428000922                  7.1426882355
           1       16                 20.1860643586                 20.1854440119
           1       17                 39.6800378350                 39.6800378704
           1       18                 41.9987405107                 41.9987406673
           1       19                 51.4938078473                 51.4938137886
           1       20                 50.2449608881                 50.2449608586
           1       21                 84.8920029004                 84.8920028797
           2       22             -12689.6974611609             -12689.6967666984
           2       23              -1610.9846578580              -1610.9846472470
           2       24               -213.5308789869               -213.5308777267
           2       25                -17.0464428502                -17.0464426496
           2       26                  6.7356859379                  6.7356842047
           2       27                 16.3222979729                 16.3222286215
           2       28              -1416.6548010133              -1416.6548002108
           2       29               -152.9535734377               -152.9535727493
           2       30                 -6.4896265677                 -6.4896303794
           2       31                  5.2703037283                  5.2701679583
           2       32                 24.5827617535                 24.5824715668
           2       33                -53.1152220964                -53.1152219035
           2       34                  7.6186674138                  7.6186665630
           2       35                 26.7015845260                 26.7015708238
           2       36                 49.4570230857                 49.4570230427
           2       37                 39.6372293866                 39.6372304734
           2       38                 42.1067201496                 42.1067200432
           2       39                 70.4166767372                 70.4166768848

  Preparing densities etc. for the partition functions (integrals / Hartree potential).

  Preparations completed.
  max(cpu_time)          :      0.496 s.
  Wall clock time (cpu1) :      0.494 s.
------------------------------------------------------------

------------------------------------------------------------
          Begin self-consistency loop: Initialization.

          Date     :  20191127, Time     :  215950.693
------------------------------------------------------------

  Initializing index lists of integration centers etc. from given atomic structure:
  Mapping all atomic coordinates to central unit cell.

  Initializing the k-points
          Using symmetry for reducing the k-points
  | k-points reduced from:      324 to      164
  | Number of k-points                             :       164
  The eigenvectors in the calculations are COMPLEX.
  | K-points in task   0:         2
  | K-points in task   1:         3
  | K-points in task   2:         3
  | K-points in task   3:         3
  | K-points in task   4:         3
  | K-points in task   5:         2
  | K-points in task   6:         2
  | K-points in task   7:         2
  | K-points in task   8:         2
  | K-points in task   9:         2
  | K-points in task  10:         2
  | K-points in task  11:         2
  | K-points in task  12:         2
  | K-points in task  13:         2
  | K-points in task  14:         2
  | K-points in task  15:         2
  | K-points in task  16:         2
  | K-points in task  17:         2
  | K-points in task  18:         2
  | K-points in task  19:         2
  | K-points in task  20:         2
  | K-points in task  21:         2
  | K-points in task  22:         2
  | K-points in task  23:         2
  | K-points in task  24:         2
  | K-points in task  25:         2
  | K-points in task  26:         2
  | K-points in task  27:         2
  | K-points in task  28:         2
  | K-points in task  29:         2
  | K-points in task  30:         2
  | K-points in task  31:         2
  | K-points in task  32:         2
  | K-points in task  33:         2
  | K-points in task  34:         2
  | K-points in task  35:         2
  | K-points in task  36:         2
  | K-points in task  37:         2
  | K-points in task  38:         2
  | K-points in task  39:         2
  | K-points in task  40:         2
  | K-points in task  41:         2
  | K-points in task  42:         2
  | K-points in task  43:         2
  | K-points in task  44:         2
  | K-points in task  45:         2
  | K-points in task  46:         2
  | K-points in task  47:         2
  | K-points in task  48:         2
  | K-points in task  49:         2
  | K-points in task  50:         2
  | K-points in task  51:         2
  | K-points in task  52:         2
  | K-points in task  53:         2
  | K-points in task  54:         2
  | K-points in task  55:         2
  | K-points in task  56:         2
  | K-points in task  57:         2
  | K-points in task  58:         2
  | K-points in task  59:         2
  | K-points in task  60:         2
  | K-points in task  61:         2
  | K-points in task  62:         2
  | K-points in task  63:         2
  | K-points in task  64:         2
  | K-points in task  65:         2
  | K-points in task  66:         2
  | K-points in task  67:         2
  | K-points in task  68:         2
  | K-points in task  69:         2
  | K-points in task  70:         2
  | K-points in task  71:         2
  | K-points in task  72:         2
  | K-points in task  73:         2
  | K-points in task  74:         2
  | K-points in task  75:         2
  | K-points in task  76:         2
  | K-points in task  77:         2
  | K-points in task  78:         2
  | K-points in task  79:         2
  | Number of basis functions in the Hamiltonian integrals :      6556
  | Number of basis functions in a single unit cell        :       446
  | Number of centers in hartree potential         :       714
  | Number of centers in hartree multipole         :       390
  | Number of centers in electron density summation:       288
  | Number of centers in basis integrals           :       330
  | Number of centers in integrals                 :       126
  | Number of centers in hamiltonian               :       288
  | Consuming        153 KiB for k_phase.
  | Number of super-cells (origin) [n_cells]                     :         675
  | Number of super-cells (after PM_index) [n_cells]             :          60
  | Number of super-cells in hamiltonian [n_cells_in_hamiltonian]:          60
  | Size of matrix packed + index [n_hamiltonian_matrix_size] :     2090379
  Initializing relaxation algorithms.
  Partitioning the integration grid into batches with parallel hashing+maxmin method.
  | Number of batches:     2363
  | Maximal batch size:     193
  | Minimal batch size:       7
  | Average batch size:      80.824
  | Standard deviation of batch sizes:      23.944

  Integration load balanced across    80 MPI tasks.
  Work distribution over tasks is as follows:
  Task     0 has       2334 integration points.
  Task     1 has       2489 integration points.
  Task     2 has       2413 integration points.
  Task     3 has       2335 integration points.
  Task     4 has       2390 integration points.
  Task     5 has       2445 integration points.
  Task     6 has       2412 integration points.
  Task     7 has       2422 integration points.
  Task     8 has       2334 integration points.
  Task     9 has       2451 integration points.
  Task    10 has       2387 integration points.
  Task    11 has       2468 integration points.
  Task    12 has       2370 integration points.
  Task    13 has       2353 integration points.
  Task    14 has       2386 integration points.
  Task    15 has       2338 integration points.
  Task    16 has       2464 integration points.
  Task    17 has       2470 integration points.
  Task    18 has       2353 integration points.
  Task    19 has       2448 integration points.
  Task    20 has       2385 integration points.
  Task    21 has       2377 integration points.
  Task    22 has       2367 integration points.
  Task    23 has       2383 integration points.
  Task    24 has       2358 integration points.
  Task    25 has       2333 integration points.
  Task    26 has       2435 integration points.
  Task    27 has       2443 integration points.
  Task    28 has       2388 integration points.
  Task    29 has       2379 integration points.
  Task    30 has       2443 integration points.
  Task    31 has       2354 integration points.
  Task    32 has       2341 integration points.
  Task    33 has       2393 integration points.
  Task    34 has       2365 integration points.
  Task    35 has       2481 integration points.
  Task    36 has       2378 integration points.
  Task    37 has       2430 integration points.
  Task    38 has       2384 integration points.
  Task    39 has       2447 integration points.
  Task    40 has       2341 integration points.
  Task    41 has       2337 integration points.
  Task    42 has       2373 integration points.
  Task    43 has       2359 integration points.
  Task    44 has       2357 integration points.
  Task    45 has       2336 integration points.
  Task    46 has       2360 integration points.
  Task    47 has       2382 integration points.
  Task    48 has       2334 integration points.
  Task    49 has       2344 integration points.
  Task    50 has       2348 integration points.
  Task    51 has       2386 integration points.
  Task    52 has       2370 integration points.
  Task    53 has       2462 integration points.
  Task    54 has       2372 integration points.
  Task    55 has       2342 integration points.
  Task    56 has       2337 integration points.
  Task    57 has       2451 integration points.
  Task    58 has       2388 integration points.
  Task    59 has       2371 integration points.
  Task    60 has       2340 integration points.
  Task    61 has       2365 integration points.
  Task    62 has       2384 integration points.
  Task    63 has       2335 integration points.
  Task    64 has       2485 integration points.
  Task    65 has       2484 integration points.
  Task    66 has       2383 integration points.
  Task    67 has       2360 integration points.
  Task    68 has       2386 integration points.
  Task    69 has       2340 integration points.
  Task    70 has       2358 integration points.
  Task    71 has       2381 integration points.
  Task    72 has       2370 integration points.
  Task    73 has       2417 integration points.
  Task    74 has       2355 integration points.
  Task    75 has       2467 integration points.
  Task    76 has       2446 integration points.
  Task    77 has       2337 integration points.
  Task    78 has       2336 integration points.
  Task    79 has       2383 integration points.
  Initializing partition tables, free-atom densities, potentials, etc. across the integration grid (initialize_grid_storage).
  | initialize_grid_storage: Actual outermost partition radius vs. multipole_radius_free
  | (-- VB: in principle, multipole_radius_free should be larger, hence this output)
  | Species        1: Confinement radius =              6.000000000000000 AA, multipole_radius_free =              6.016994434057369 AA.
  | Species        1: outer_partition_radius set to              6.016994434057369 AA .
  | Species        2: Confinement radius =              6.000000000000000 AA, multipole_radius_free =              6.037996416842453 AA.
  | Species        2: outer_partition_radius set to              6.037996416842453 AA .
  | Original list of interatomic distances with         330 x        330 entries is created.
  | Net number of integration points:   190988
  | of which are non-zero points    :   160552
  | Numerical average free-atom electrostatic potential    :     -2.48697805 eV
  Renormalizing the initial density to the exact electron count on the 3D integration grid.
  | Initial density: Formal number of electrons (from input files) :     220.0000000000
  | Integrated number of electrons on 3D grid     :     219.9998461563
  | Charge integration error                      :      -0.0001538437
  | Normalization factor for density and gradient :       1.0000006993
  Obtaining max. number of non-zero basis functions in each batch (get_n_compute_maxes).
  | Maximal number of non-zero basis functions:     2118 in task     0
  | Maximal number of non-zero basis functions:     2096 in task     1
  | Maximal number of non-zero basis functions:     2061 in task     2
  | Maximal number of non-zero basis functions:     2154 in task     3
  | Maximal number of non-zero basis functions:     2083 in task     4
  | Maximal number of non-zero basis functions:     2173 in task     5
  | Maximal number of non-zero basis functions:     2165 in task     6
  | Maximal number of non-zero basis functions:     2030 in task     7
  | Maximal number of non-zero basis functions:     2053 in task     8
  | Maximal number of non-zero basis functions:     2123 in task     9
  | Maximal number of non-zero basis functions:     2096 in task    10
  | Maximal number of non-zero basis functions:     2109 in task    11
  | Maximal number of non-zero basis functions:     2110 in task    12
  | Maximal number of non-zero basis functions:     2192 in task    13
  | Maximal number of non-zero basis functions:     2102 in task    14
  | Maximal number of non-zero basis functions:     2170 in task    15
  | Maximal number of non-zero basis functions:     2195 in task    16
  | Maximal number of non-zero basis functions:     2144 in task    17
  | Maximal number of non-zero basis functions:     2150 in task    18
  | Maximal number of non-zero basis functions:     2112 in task    19
  | Maximal number of non-zero basis functions:     2199 in task    20
  | Maximal number of non-zero basis functions:     2103 in task    21
  | Maximal number of non-zero basis functions:     2190 in task    22
  | Maximal number of non-zero basis functions:     2088 in task    23
  | Maximal number of non-zero basis functions:     2085 in task    24
  | Maximal number of non-zero basis functions:     2042 in task    25
  | Maximal number of non-zero basis functions:     2095 in task    26
  | Maximal number of non-zero basis functions:     2189 in task    27
  | Maximal number of non-zero basis functions:     2067 in task    28
  | Maximal number of non-zero basis functions:     2072 in task    29
  | Maximal number of non-zero basis functions:     2092 in task    30
  | Maximal number of non-zero basis functions:     2173 in task    31
  | Maximal number of non-zero basis functions:     2161 in task    32
  | Maximal number of non-zero basis functions:     2108 in task    33
  | Maximal number of non-zero basis functions:     2089 in task    34
  | Maximal number of non-zero basis functions:     2111 in task    35
  | Maximal number of non-zero basis functions:     2145 in task    36
  | Maximal number of non-zero basis functions:     2112 in task    37
  | Maximal number of non-zero basis functions:     2143 in task    38
  | Maximal number of non-zero basis functions:     2102 in task    39
  | Maximal number of non-zero basis functions:     2159 in task    40
  | Maximal number of non-zero basis functions:     2223 in task    41
  | Maximal number of non-zero basis functions:     2172 in task    42
  | Maximal number of non-zero basis functions:     2142 in task    43
  | Maximal number of non-zero basis functions:     2122 in task    44
  | Maximal number of non-zero basis functions:     2053 in task    45
  | Maximal number of non-zero basis functions:     2246 in task    46
  | Maximal number of non-zero basis functions:     2043 in task    47
  | Maximal number of non-zero basis functions:     2175 in task    48
  | Maximal number of non-zero basis functions:     2070 in task    49
  | Maximal number of non-zero basis functions:     2139 in task    50
  | Maximal number of non-zero basis functions:     2068 in task    51
  | Maximal number of non-zero basis functions:     2041 in task    52
  | Maximal number of non-zero basis functions:     2082 in task    53
  | Maximal number of non-zero basis functions:     2295 in task    54
  | Maximal number of non-zero basis functions:     2056 in task    55
  | Maximal number of non-zero basis functions:     2146 in task    56
  | Maximal number of non-zero basis functions:     2168 in task    57
  | Maximal number of non-zero basis functions:     2190 in task    58
  | Maximal number of non-zero basis functions:     2058 in task    59
  | Maximal number of non-zero basis functions:     2176 in task    60
  | Maximal number of non-zero basis functions:     2096 in task    61
  | Maximal number of non-zero basis functions:     2184 in task    62
  | Maximal number of non-zero basis functions:     2227 in task    63
  | Maximal number of non-zero basis functions:     2114 in task    64
  | Maximal number of non-zero basis functions:     2104 in task    65
  | Maximal number of non-zero basis functions:     2072 in task    66
  | Maximal number of non-zero basis functions:     2052 in task    67
  | Maximal number of non-zero basis functions:     2049 in task    68
  | Maximal number of non-zero basis functions:     2031 in task    69
  | Maximal number of non-zero basis functions:     2036 in task    70
  | Maximal number of non-zero basis functions:     2130 in task    71
  | Maximal number of non-zero basis functions:     2156 in task    72
  | Maximal number of non-zero basis functions:     2045 in task    73
  | Maximal number of non-zero basis functions:     2059 in task    74
  | Maximal number of non-zero basis functions:     2086 in task    75
  | Maximal number of non-zero basis functions:     2109 in task    76
  | Maximal number of non-zero basis functions:     2094 in task    77
  | Maximal number of non-zero basis functions:     2097 in task    78
  | Maximal number of non-zero basis functions:     2106 in task    79
  Allocating        2.041 MB for KS_eigenvector_complex
  Integrating Hamiltonian matrix: batch-based integration.
  Time summed over all CPUs for integration: real work      106.363 s, elapsed      113.458 s
  Integrating overlap matrix.
  Time summed over all CPUs for integration: real work       83.006 s, elapsed       88.740 s
  Decreasing sparse matrix size:
   Tolerance:  9.999999824516700E-014
   Hamiltonian matrix
  | Array has  1709301 nonzero elements out of  2090379 elements
  | Sparsity factor is 0.182
   Overlap matrix
  | Array has  1577408 nonzero elements out of  2090379 elements
  | Sparsity factor is 0.245
  New size of hamiltonian matrix:     1717344

  Updating Kohn-Sham eigenvalues and eigenvectors using ELSI and the ELPA eigensolver.
  Overlap matrix is nonsingular
  | Lowest eigenvalue of overlap  :  0.64E-04
  | Highest eigenvalue of overlap :  0.91E+01
  Finished singularity check of overlap matrix
  | Time :     0.040 s
  Finished Cholesky decomposition
  | Time :     0.011 s
  Finished transformation to standard eigenproblem
  | Time :     0.018 s
  Starting LAPACK eigensolver
  Finished solving standard eigenproblem
  | Time :     0.046 s
  Finished back-transformation of eigenvectors
  | Time :     0.006 s

  Obtaining occupation numbers and chemical potential using ELSI.
  | Chemical potential (Fermi level):    -5.34005248eV
  Writing Kohn-Sham eigenvalues.
  K-point:       1 at    0.000000    0.000000    0.000000 (in units of recip. lattice)

  State    Occupation    Eigenvalue [Ha]    Eigenvalue [eV]
      1       2.00000        -745.361555       -20282.31987
      2       2.00000        -745.361555       -20282.31987
      3       2.00000        -466.361155       -12690.33269
      4       2.00000        -466.361155       -12690.33269
      5       2.00000        -466.361069       -12690.33035
      6       2.00000        -466.361069       -12690.33035
      7       2.00000        -103.305660        -2811.09004
      8       2.00000        -103.305660        -2811.09004
      9       2.00000         -92.326028        -2512.31904
     10       2.00000         -92.326028        -2512.31904
     11       2.00000         -92.326027        -2512.31901
     12       2.00000         -92.326027        -2512.31901
     13       2.00000         -92.326027        -2512.31901
     14       2.00000         -92.326027        -2512.31901
     15       2.00000         -59.226478        -1611.63446
     16       2.00000         -59.226478        -1611.63446
     17       2.00000         -59.226389        -1611.63203
     18       2.00000         -59.226389        -1611.63203
     19       2.00000         -52.084972        -1417.30419
     20       2.00000         -52.084971        -1417.30419
     21       2.00000         -52.084919        -1417.30276
     22       2.00000         -52.084919        -1417.30276
     23       2.00000         -52.084919        -1417.30276
     24       2.00000         -52.084919        -1417.30276
     25       2.00000         -52.084882        -1417.30174
     26       2.00000         -52.084882        -1417.30174
     27       2.00000         -52.084831        -1417.30037
     28       2.00000         -52.084831        -1417.30037
     29       2.00000         -52.084831        -1417.30037
     30       2.00000         -52.084831        -1417.30037
     31       2.00000         -17.535668         -477.16980
     32       2.00000         -17.535668         -477.16980
     33       2.00000         -13.955058         -379.73646
     34       2.00000         -13.955058         -379.73646
     35       2.00000         -13.955039         -379.73593
     36       2.00000         -13.955039         -379.73593
     37       2.00000         -13.955039         -379.73593
     38       2.00000         -13.955039         -379.73593
     39       2.00000          -8.138021         -221.44681
     40       2.00000          -8.138021         -221.44681
     41       2.00000          -8.138021         -221.44681
     42       2.00000          -8.138021         -221.44681
     43       2.00000          -8.137986         -221.44587
     44       2.00000          -8.137986         -221.44587
     45       2.00000          -8.137986         -221.44587
     46       2.00000          -8.137986         -221.44587
     47       2.00000          -8.137985         -221.44585
     48       2.00000          -8.137985         -221.44585
     49       2.00000          -7.873659         -214.25318
     50       2.00000          -7.873659         -214.25317
     51       2.00000          -7.873544         -214.25002
     52       2.00000          -7.873544         -214.25002
     53       2.00000          -5.648146         -153.69388
     54       2.00000          -5.648146         -153.69388
     55       2.00000          -5.648008         -153.69012
     56       2.00000          -5.648008         -153.69012
     57       2.00000          -5.647520         -153.67685
     58       2.00000          -5.647520         -153.67685
     59       2.00000          -5.647520         -153.67685
     60       2.00000          -5.647520         -153.67685
     61       2.00000          -5.647411         -153.67386
     62       2.00000          -5.647411         -153.67386
     63       2.00000          -5.647411         -153.67386
     64       2.00000          -5.647411         -153.67386
     65       2.00000          -2.392039          -65.09068
     66       2.00000          -2.392039          -65.09068
     67       2.00000          -1.980071          -53.88047
     68       2.00000          -1.980071          -53.88047
     69       2.00000          -1.980065          -53.88031
     70       2.00000          -1.980065          -53.88031
     71       2.00000          -1.980030          -53.87935
     72       2.00000          -1.980021          -53.87910
     73       2.00000          -1.979925          -53.87651
     74       2.00000          -1.979925          -53.87650
     75       2.00000          -1.979925          -53.87650
     76       2.00000          -1.979925          -53.87650
     77       2.00000          -1.979854          -53.87456
     78       2.00000          -1.979853          -53.87454
     79       2.00000          -1.979302          -53.85955
     80       2.00000          -1.979302          -53.85955
     81       2.00000          -1.979300          -53.85948
     82       2.00000          -1.979300          -53.85948
     83       2.00000          -1.979186          -53.85640
     84       2.00000          -1.979186          -53.85640
     85       2.00000          -1.979186          -53.85640
     86       2.00000          -1.979186          -53.85640
     87       2.00000          -1.451724          -39.50343
     88       2.00000          -1.451723          -39.50339
     89       2.00000          -1.442851          -39.26198
     90       2.00000          -1.442851          -39.26198
     91       2.00000          -1.442851          -39.26198
     92       2.00000          -1.442851          -39.26198
     93       2.00000          -0.767073          -20.87311
     94       2.00000          -0.762289          -20.74293
     95       2.00000          -0.727191          -19.78788
     96       2.00000          -0.720190          -19.59737
     97       2.00000          -0.443163          -12.05909
     98       2.00000          -0.421481          -11.46909
     99       2.00000          -0.320750           -8.72806
    100       2.00000          -0.296256           -8.06153
    101       2.00000          -0.296255           -8.06152
    102       2.00000          -0.295841           -8.05025
    103       2.00000          -0.295841           -8.05023
    104       2.00000          -0.278097           -7.56741
    105       2.00000          -0.258664           -7.03861
    106       2.00000          -0.258664           -7.03859
    107       2.00000          -0.257514           -7.00730
    108       2.00000          -0.257513           -7.00728
    109       2.00000          -0.220643           -6.00400
    110       2.00000          -0.197706           -5.37986
    111       0.00000          -0.110398           -3.00409
    112       0.00000          -0.110398           -3.00408
    113       0.00000          -0.109597           -2.98229
    114       0.00000          -0.109596           -2.98226
    115       0.00000          -0.103292           -2.81072
    116       0.00000          -0.103291           -2.81068
    117       0.00000          -0.099993           -2.72094
    118       0.00000          -0.099992           -2.72091
    119       0.00000          -0.023941           -0.65147
    120       0.00000          -0.017308           -0.47098
    121       0.00000           0.030814            0.83850
    122       0.00000           0.031452            0.85585
    123       0.00000           0.080606            2.19339
    124       0.00000           0.089322            2.43056
    125       0.00000           0.123869            3.37065
    126       0.00000           0.172734            4.70032
    127       0.00000           0.172734            4.70034
    128       0.00000           0.181367            4.93525
    129       0.00000           0.181367            4.93526
    130       0.00000           0.220530            6.00093
    131       0.00000           0.245075            6.66882
    132       0.00000           0.248208            6.75409
    133       0.00000           0.248209            6.75411
    134       0.00000           0.262045            7.13062
    135       0.00000           0.262045            7.13062
    136       0.00000           0.278515            7.57878
    137       0.00000           0.318879            8.67715
    138       0.00000           0.319009            8.68067
    139       0.00000           0.346378            9.42543
    140       0.00000           0.387488           10.54407
    141       0.00000           0.387491           10.54417
    142       0.00000           0.388976           10.58457
    143       0.00000           0.388977           10.58460

  What follows are estimated values for band gap, HOMO, LUMO, etc.
  | They are estimated on a discrete k-point grid and not necessarily exact.
  | For converged numbers, create a DOS and/or band structure plot on a denser k-grid.

  Highest occupied state (VBM) at     -5.37985680 eV (relative to internal zero)
  | Occupation number:      1.99999998
  | K-point:       1 at    0.000000    0.000000    0.000000 (in units of recip. lattice)

  Lowest unoccupied state (CBM) at    -4.19332738 eV (relative to internal zero)
  | Occupation number:      0.00000000
  | K-point:      47 at    0.166667    0.666667    0.000000 (in units of recip. lattice)

  ESTIMATED overall HOMO-LUMO gap:      1.18652942 eV between HOMO at k-point 1 and LUMO at k-point 47
  | This appears to be an indirect band gap.
  | Smallest direct gap :      1.62853683 eV for k_point 83 at    0.166667    0.666667    0.000000 (in units of recip. lattice)
  The gap value is above 0.2 eV. Unless you are using a very sparse k-point grid,
  this system is most likely an insulator or a semiconductor.
  Calculating total energy contributions from superposition of free atom densities.

  Total energy components:
  | Sum of eigenvalues            :      -10677.13155833 Ha     -290539.53219068 eV
  | XC energy correction          :        -601.70138930 Ha      -16373.12785851 eV
  | XC potential correction       :         783.49840168 Ha       21320.07626333 eV
  | Free-atom electrostatic energy:       -7462.80392265 Ha     -203073.22698733 eV
  | Hartree energy correction     :           0.00000000 Ha           0.00000000 eV
  | Entropy correction            :          -0.00000000 Ha          -0.00000000 eV
  | ---------------------------
  | Total energy                  :      -17958.13846860 Ha     -488665.81077319 eV
  | Total energy, T -> 0          :      -17958.13846860 Ha     -488665.81077319 eV  <-- do not rely on this value for anything but (periodic) metals
  | Electronic free energy        :      -17958.13846860 Ha     -488665.81077319 eV

  Derived energy quantities:
  | Kinetic energy                :       18414.48751028 Ha      501083.70001263 eV
  | Electrostatic energy          :      -35770.92458957 Ha     -973376.38292731 eV
  | Energy correction for multipole
  | error in Hartree potential    :           0.00000000 Ha           0.00000000 eV
  | Sum of eigenvalues per atom                           :      -48423.25536511 eV
  | Total energy (T->0) per atom                          :      -81444.30179553 eV  <-- do not rely on this value for anything but (periodic) metals
  | Electronic free energy per atom                       :      -81444.30179553 eV
  Initialize hartree_potential_storage
  Max. number of atoms included in rho_multipole:            6

  End scf initialization - timings             :  max(cpu_time)    wall_clock(cpu1)
  | Time for scf. initialization               :        5.392 s           5.387 s
  | Boundary condition initialization          :        1.196 s           1.189 s
  | Relaxation initialization                  :        0.004 s           0.002 s
  | Integration                                :        3.236 s           3.230 s
  | Solution of K.-S. eqns.                    :        0.500 s           0.495 s
  | Grid partitioning                          :        0.256 s           0.256 s
  | Preloading free-atom quantities on grid    :        0.016 s           0.014 s
  | Free-atom superposition energy             :        0.016 s           0.014 s
  | Total energy evaluation                    :        0.004 s           0.001 s

  Partial memory accounting:
  | Current value for overall tracked memory usage on task 0  :          36.389 MB
  | Peak value for overall tracked memory usage on task 0     :          89.598 MB after allocating wave
  | Largest tracked array allocation on task 0 so far         :          35.887 MB  when allocating hamiltonian_shell
  Note:  These values currently only include a subset of arrays which are explicitly tracked.
  The "true" memory usage will be greater.
------------------------------------------------------------

------------------------------------------------------------
          Begin self-consistency iteration #    1

  Date     :  20191127, Time     :  215956.080
------------------------------------------------------------
  Evaluating new KS density using the density matrix
  Evaluating density matrix
  Time summed over all CPUs for getting density from density matrix: real work      215.050 s, elapsed      228.168 s
  Integration grid: deviation in total charge (<rho> - N_e) =  -5.587708E-11
  Pulay mixing of updated and previous charge densities.

  Evaluating partitioned Hartree potential by multipole expansion.
  | Analytical far-field extrapolation by fixed multipoles:
  | Hartree multipole sum: apparent total charge =   0.971781E-04
  Summing up the Hartree potential.
  | Estimated reciprocal-space cutoff momentum G_max:         1.90186217 bohr^-1 .
  | Reciprocal lattice points for long-range Hartree potential:     660
  Time summed over all CPUs for potential: real work       15.219 s, elapsed       16.092 s
  | RMS charge density error from multipole expansion :   0.330369E-03
  | Average real-space part of the electrostatic potential :     -0.00086545 eV

  Integrating Hamiltonian matrix: batch-based integration.
  Time summed over all CPUs for integration: real work      102.754 s, elapsed      109.801 s

  Updating Kohn-Sham eigenvalues and eigenvectors using ELSI and the ELPA eigensolver.
  Finished Cholesky decomposition
  | Time :     0.011 s
  Finished transformation to standard eigenproblem
  | Time :     0.017 s
  Starting LAPACK eigensolver
  Finished solving standard eigenproblem
  | Time :     0.045 s
  Finished back-transformation of eigenvectors
  | Time :     0.005 s

  Obtaining occupation numbers and chemical potential using ELSI.
  | Chemical potential (Fermi level):    -5.38327005eV
  Writing Kohn-Sham eigenvalues.
  K-point:       1 at    0.000000    0.000000    0.000000 (in units of recip. lattice)

  State    Occupation    Eigenvalue [Ha]    Eigenvalue [eV]
      1       2.00000        -745.376008       -20282.71315
      2       2.00000        -745.376008       -20282.71315
      3       2.00000        -466.356422       -12690.20392
      4       2.00000        -466.356422       -12690.20392
      5       2.00000        -466.356383       -12690.20286
      6       2.00000        -466.356383       -12690.20286
      7       2.00000        -103.319976        -2811.47958
      8       2.00000        -103.319976        -2811.47958
      9       2.00000         -92.340450        -2512.71150
     10       2.00000         -92.340450        -2512.71149
     11       2.00000         -92.340444        -2512.71132
     12       2.00000         -92.340444        -2512.71132
     13       2.00000         -92.340444        -2512.71131
     14       2.00000         -92.340444        -2512.71131
     15       2.00000         -59.222196        -1611.51794
     16       2.00000         -59.222196        -1611.51794
     17       2.00000         -59.222173        -1611.51731
     18       2.00000         -59.222173        -1611.51731
     19       2.00000         -52.080611        -1417.18552
     20       2.00000         -52.080611        -1417.18552
     21       2.00000         -52.080590        -1417.18495
     22       2.00000         -52.080590        -1417.18495
     23       2.00000         -52.080590        -1417.18495
     24       2.00000         -52.080590        -1417.18495
     25       2.00000         -52.080588        -1417.18490
     26       2.00000         -52.080588        -1417.18490
     27       2.00000         -52.080563        -1417.18422
     28       2.00000         -52.080563        -1417.18422
     29       2.00000         -52.080563        -1417.18422
     30       2.00000         -52.080563        -1417.18422
     31       2.00000         -17.547533         -477.49267
     32       2.00000         -17.547533         -477.49267
     33       2.00000         -13.966944         -380.05987
     34       2.00000         -13.966944         -380.05987
     35       2.00000         -13.966897         -380.05860
     36       2.00000         -13.966897         -380.05860
     37       2.00000         -13.966897         -380.05860
     38       2.00000         -13.966897         -380.05860
     39       2.00000          -8.150104         -221.77560
     40       2.00000          -8.150104         -221.77560
     41       2.00000          -8.150104         -221.77560
     42       2.00000          -8.150104         -221.77560
     43       2.00000          -8.150046         -221.77403
     44       2.00000          -8.150046         -221.77403
     45       2.00000          -8.150036         -221.77377
     46       2.00000          -8.150036         -221.77377
     47       2.00000          -8.150036         -221.77377
     48       2.00000          -8.150036         -221.77377
     49       2.00000          -7.869772         -214.14738
     50       2.00000          -7.869772         -214.14738
     51       2.00000          -7.869756         -214.14695
     52       2.00000          -7.869756         -214.14695
     53       2.00000          -5.644183         -153.58605
     54       2.00000          -5.644183         -153.58605
     55       2.00000          -5.644141         -153.58488
     56       2.00000          -5.644141         -153.58488
     57       2.00000          -5.643677         -153.57225
     58       2.00000          -5.643677         -153.57225
     59       2.00000          -5.643677         -153.57225
     60       2.00000          -5.643677         -153.57225
     61       2.00000          -5.643669         -153.57205
     62       2.00000          -5.643669         -153.57205
     63       2.00000          -5.643669         -153.57205
     64       2.00000          -5.643669         -153.57205
     65       2.00000          -2.399657          -65.29799
     66       2.00000          -2.399657          -65.29799
     67       2.00000          -1.976196          -53.77502
     68       2.00000          -1.976196          -53.77502
     69       2.00000          -1.976191          -53.77489
     70       2.00000          -1.976191          -53.77489
     71       2.00000          -1.976138          -53.77345
     72       2.00000          -1.976138          -53.77345
     73       2.00000          -1.976137          -53.77342
     74       2.00000          -1.976137          -53.77342
     75       2.00000          -1.976126          -53.77313
     76       2.00000          -1.976119          -53.77293
     77       2.00000          -1.976023          -53.77031
     78       2.00000          -1.976020          -53.77024
     79       2.00000          -1.975501          -53.75613
     80       2.00000          -1.975501          -53.75613
     81       2.00000          -1.975499          -53.75605
     82       2.00000          -1.975499          -53.75605
     83       2.00000          -1.975487          -53.75573
     84       2.00000          -1.975487          -53.75573
     85       2.00000          -1.975487          -53.75573
     86       2.00000          -1.975487          -53.75573
     87       2.00000          -1.458285          -39.68194
     88       2.00000          -1.458283          -39.68190
     89       2.00000          -1.449601          -39.44566
     90       2.00000          -1.449601          -39.44566
     91       2.00000          -1.449601          -39.44566
     92       2.00000          -1.449601          -39.44566
     93       2.00000          -0.764696          -20.80842
     94       2.00000          -0.759900          -20.67794
     95       2.00000          -0.724861          -19.72446
     96       2.00000          -0.717802          -19.53237
     97       2.00000          -0.442011          -12.02774
     98       2.00000          -0.420518          -11.44287
     99       2.00000          -0.318944           -8.67891
    100       2.00000          -0.296770           -8.07553
    101       2.00000          -0.296770           -8.07552
    102       2.00000          -0.296378           -8.06486
    103       2.00000          -0.296378           -8.06484
    104       2.00000          -0.276360           -7.52014
    105       2.00000          -0.258938           -7.04607
    106       2.00000          -0.258937           -7.04605
[...]
  | Sum of eigenvalues per atom                           :      -48416.47782203 eV
  | Total energy (T->0) per atom                          :      -81444.41101260 eV  <-- do not rely on this value for anything but (periodic) metals
  | Electronic free energy per atom                       :      -81444.41101260 eV

  atomic forces [eV/Ang]:
  -----------------------
  atom #    1
   Hellmann-Feynman              : -0.164874E-02  0.967325E-03  0.237756E+00
   Ionic forces                  :  0.000000E+00  0.000000E+00  0.000000E+00
   Multipole                     : -0.428878E-04  0.133539E-03 -0.137899E-01
   Pulay + GGA                   :  0.123211E-02 -0.787134E-03 -0.242484E+00
   Van der Waals                 :  0.313840E-03 -0.184710E-03  0.175827E-01
   ----------------------------------------------------------------
   Total forces(   1)            : -0.145674E-03  0.129021E-03 -0.935580E-03
  atom #    2
   Hellmann-Feynman              :  0.192346E-02 -0.896242E-03 -0.237698E+00
   Ionic forces                  :  0.000000E+00  0.000000E+00  0.000000E+00
   Multipole                     :  0.407734E-04 -0.133808E-03  0.137893E-01
   Pulay + GGA                   : -0.143863E-02  0.717325E-03  0.242439E+00
   Van der Waals                 : -0.313890E-03  0.184695E-03 -0.175826E-01
   ----------------------------------------------------------------
   Total forces(   2)            :  0.211712E-03 -0.128030E-03  0.948123E-03
  atom #    3
   Hellmann-Feynman              :  0.216243E-03  0.158839E-02  0.264906E+02
   Ionic forces                  :  0.000000E+00  0.000000E+00  0.000000E+00
   Multipole                     :  0.663554E-06  0.131201E-04  0.505769E-01
   Pulay + GGA                   : -0.632803E-03 -0.138412E-02 -0.264778E+02
   Van der Waals                 :  0.158517E-03 -0.931652E-04 -0.599732E-01
   ----------------------------------------------------------------
   Total forces(   3)            : -0.257380E-03  0.124231E-03  0.341596E-02
  atom #    4
   Hellmann-Feynman              :  0.464422E-03 -0.688803E-03  0.248197E+02
   Ionic forces                  :  0.000000E+00  0.000000E+00  0.000000E+00
   Multipole                     : -0.662174E-05 -0.222499E-05  0.572428E-01
   Pulay + GGA                   :  0.866979E-04  0.297332E-03 -0.249636E+02
   Van der Waals                 : -0.145047E-03  0.858885E-04  0.844933E-01
   ----------------------------------------------------------------
   Total forces(   4)            :  0.399451E-03 -0.307807E-03 -0.218668E-02
  atom #    5
   Hellmann-Feynman              : -0.213784E-03 -0.157804E-02 -0.264906E+02
   Ionic forces                  :  0.000000E+00  0.000000E+00  0.000000E+00
   Multipole                     : -0.588023E-06 -0.131191E-04 -0.505769E-01
   Pulay + GGA                   :  0.633229E-03  0.136036E-02  0.264778E+02
   Van der Waals                 : -0.158562E-03  0.931775E-04  0.599731E-01
   ----------------------------------------------------------------
   Total forces(   5)            :  0.260295E-03 -0.137618E-03 -0.341570E-02
  atom #    6
   Hellmann-Feynman              : -0.413158E-03  0.697394E-03 -0.248197E+02
   Ionic forces                  :  0.000000E+00  0.000000E+00  0.000000E+00
   Multipole                     :  0.659154E-05  0.222310E-05 -0.572429E-01
   Pulay + GGA                   : -0.207671E-03 -0.315628E-03  0.249636E+02
   Van der Waals                 :  0.145143E-03 -0.858855E-04 -0.844933E-01
   ----------------------------------------------------------------
   Total forces(   6)            : -0.469095E-03  0.298104E-03  0.217290E-02


  Analytical stress tensor components [eV]         xx                  yy                  zz                  xy                  xz                  yz
  -----------------------------------------------------------------------------------------------------------------------------------------------------------
    Nuclear Hellmann-Feynman      :    -0.1476440055E+02   -0.1475510814E+02   -0.1087039608E+03    0.3348510300E-02    0.1296055034E-02   -0.3077998847E-03
    Multipole Hellmann-Feynman    :    -0.1423799265E+03   -0.1423697565E+03   -0.2438547858E+03    0.7720558957E-02    0.3476883291E-02   -0.2576327532E-02
    On-site Multipole corrections :    -0.2072415628E+01   -0.2072983306E+01   -0.2072562799E+01   -0.1345705670E-07   -0.7648093894E-08    0.1752810251E-04
    Strain deriv. of the orbitals :     0.1570190986E+03    0.1570016778E+03    0.3537012631E+03   -0.9803509071E-02   -0.2096838503E-02    0.1391957320E-02
    vdW correction   :     0.2194846034E+01    0.2198038715E+01    0.9659994585E+00    0.2761469139E-02    0.2188558294E-04   -0.1255301526E-04
  -----------------------------------------------------------------------------------------------------------------------------------------------------------
  Sum of all contributions        :    -0.2798022845E-02    0.1868575932E-02    0.3595309297E-01    0.4027015868E-02    0.2697977757E-02   -0.1487195009E-02

  +-------------------------------------------------------------------+
  |              Analytical stress tensor - Symmetrized               |
  |                  Cartesian components [eV/A**3]                   |
  +-------------------------------------------------------------------+
  |                x                y                z                |
  |                                                                   |
  |  x        -0.00000300       0.00000432       0.00000290           |
  |  y         0.00000432       0.00000201      -0.00000160           |
  |  z         0.00000290      -0.00000160       0.00003860           |
  |                                                                   |
  |  Pressure:      -0.00001253   [eV/A**3]                           |
  |                                                                   |
  +-------------------------------------------------------------------+

 * Warning: Stress tensor is anisotropic. Be aware that pressure is an isotropic quantity.

  Timings for VdW correction (Tkatchenko-Scheffler 2009 or later):
  | CPU time:        2.640 s, Wall clock time:        2.635 s.
  Removing unitary transformations (pure translations, rotations) from forces on atoms.
  Atomic forces before filtering:
  | Net force on center of mass :  -0.690328E-06 -0.220998E-04 -0.983361E-06 eV/A
  Removing unitary transformations (rotations) from forces on lattice.
  Lattice forces before filtering:
  | Net torque relative to origin:   0.212703E-20  0.293078E-20 -0.590053E-17 eV
  Atomic forces after filtering:
  | Net force on center of mass :   0.174225E-18  0.435562E-19  0.000000E+00 eV/A
  Lattice forces after filtering:
  | Net torque relative to origin:   0.212703E-20  0.293078E-20 -0.590053E-17 eV

  Energy and forces in a compact form:
  | Total energy uncorrected      :         -0.488666466075619E+06 eV
  | Total energy corrected        :         -0.488666466075619E+06 eV  <-- do not rely on this value for anything but (periodic) metals
  | Electronic free energy        :         -0.488666466075619E+06 eV
  Total atomic forces (unitary forces cleaned) [eV/Ang]:
  |   1         -0.145559267668244E-03          0.132703822236942E-03         -0.935416035977059E-03
  |   2          0.211827037582410E-03         -0.124347065000927E-03          0.948286483877003E-03
  |   3         -0.257264836453544E-03          0.127914705937445E-03          0.341612174614875E-02
  |   4          0.399566551464278E-03         -0.304123745231900E-03         -0.218651988221175E-02
  |   5          0.260410276293483E-03         -0.133934947370905E-03         -0.341553321131196E-02
  |   6         -0.468979761218382E-03          0.301787229429345E-03          0.217306089947502E-02

  ------------------------------------ 
  Start decomposition of the XC Energy 
  ------------------------------------ 
  X and C from original XC functional choice 
  Hartree-Fock Energy :          0.000000000 Ha              0.000000000 eV
  X Energy            :       -590.357829126 Ha         -16064.453880936 eV
  C Energy            :        -11.129491030 Ha           -302.848859703 eV
  Total XC Energy     :       -601.487320156 Ha         -16367.302740640 eV
  ------------------------------------ 
  LDA X and C from self-consistent density 
  X Energy LDA        :       -560.145072214 Ha         -15242.322935782 eV
  C Energy LDA        :        -20.141027045 Ha           -548.065231149 eV
  ------------------------------------ 
  End decomposition of the XC Energy 
  ------------------------------------ 

------------------------------------------------------------
  Relaxation / MD: End force evaluation.       :  max(cpu_time)    wall_clock(cpu1)
  | Time for this force evaluation             :      143.504 s         143.537 s

------------------------------------------------------------
  Geometry optimization: Attempting to predict improved coordinates.

  +-------------------------------------------------------------------+
  | Generalized derivatives on lattice vectors [eV/A]                 |
  +-------------------------------------------------------------------+
  |lattice_vector      -0.00014423       0.00155682       0.00056083  |
  |lattice_vector       0.00141784       0.00065789      -0.00052362  |
  |lattice_vector       0.00002698      -0.00001487       0.00035953  |
  +-------------------------------------------------------------------+
  | Forces on lattice vectors cleaned from atomic contributions [eV/A]|
  +-------------------------------------------------------------------+
  |lattice_vector       0.00072575      -0.00193194      -0.00366741  |
  |lattice_vector      -0.00199935      -0.00028278       0.00362994  |
  |lattice_vector       0.00000039       0.00000091      -0.00082396  |
  +-------------------------------------------------------------------+
  | Projected forces for shape relaxation  [eV/A]                     |
  +-------------------------------------------------------------------+
  |lattice_vector       0.00072575      -0.00000000       0.00000000  |
  |lattice_vector      -0.00037739       0.00065366       0.00000000  |
  |lattice_vector      -0.00000000      -0.00000000      -0.00082396  |
  +-------------------------------------------------------------------+
  Removing unitary transformations (pure translations, rotations) from forces on atoms.
  Atomic forces before filtering:
  | Net force on center of mass :   0.174225E-18  0.435562E-19  0.000000E+00 eV/A
  Removing unitary transformations (rotations) from forces on lattice.
  Lattice forces before filtering:
  | Net torque relative to origin:   0.159934E-36 -0.639737E-36  0.184392E-18 eV
  Atomic forces after filtering:
  | Net force on center of mass :   0.871124E-19  0.435562E-19  0.000000E+00 eV/A
  Lattice forces after filtering:
  | Net torque relative to origin:   0.159934E-36 -0.639737E-36  0.184392E-18 eV
  || Forces on lattice vectors || =   0.823961E-03 eV/A.
  Net remaining forces (excluding translations, rotations) in present geometry:
  Maximum force component is  0.341612E-02 eV/A.
  Present geometry is converged.

------------------------------------------------------------
  Final atomic structure:
                         x [A]             y [A]             z [A]
  lattice_vector         3.27966880       -0.00000000        0.00000000
  lattice_vector        -1.63981391        2.84024102        0.00000000
  lattice_vector         0.00000000        0.00000000       99.99979914

            atom        -0.00144968        1.89430017        3.21948629  Mo
            atom         1.64130195        0.94594029        9.69051339  Mo
            atom         0.00152601        1.89265914       11.36957881  Se
            atom         1.63835531        0.94757264        4.90132029  Se
            atom         1.63832549        0.94758238        1.54042088  Se
            atom         0.00150558        1.89266842        8.00868034  Se

  Fractional coordinates:
                         L1                L2                L3
       atom_frac         0.33302907        0.66695050        0.03219493  Mo
       atom_frac         0.66697004        0.33304930        0.09690533  Mo
       atom_frac         0.33364749        0.66637272        0.11369602  Se
       atom_frac         0.66635894        0.33362403        0.04901330  Se
       atom_frac         0.66635156        0.33362745        0.01540424  Se
       atom_frac         0.33364290        0.66637599        0.08008696  Se
------------------------------------------------------------

------------------------------------------------------------------------------
  Final output of selected total energy values:

  The following output summarizes some interesting total energy values
  at the end of a run (AFTER all relaxation, molecular dynamics, etc.).

  | Total energy of the DFT / Hartree-Fock s.c.f. calculation      :        -488666.466075619 eV
  | Final zero-broadening corrected energy (caution - metals only) :        -488666.466075619 eV
  | For reference only, the value of 1 Hartree used in FHI-aims is :             27.211384500 eV

  Before relying on these values, please be sure to understand exactly which
  total energy value is referred to by a given number. Different objects may
  all carry the same name 'total energy'. Definitions:

  Total energy of the DFT / Hartree-Fock s.c.f. calculation:
  | Note that this energy does not include ANY quantities calculated after the
  | s.c.f. cycle, in particular not ANY RPA, MP2, etc. many-body perturbation terms.

  Final zero-broadening corrected energy:
  | For metallic systems only, a broadening of the occupation numbers at the Fermi
  | level can be extrapolated back to zero broadening by an electron-gas inspired
  | formula. For all systems that are not real metals, this value can be
  | meaningless and should be avoided.

------------------------------------------------------------------------------
  Methods described in the following list of references were used in this FHI-aims run.
  If you publish the results, please make sure to cite these reference if they apply.
  FHI-aims is an academic code, and for our developers (often, Ph.D. students
  and postdocs), scientific credit in the community is essential.
  Thank you for helping us!

  For any use of FHI-aims, please cite:

    Volker Blum, Ralf Gehrke, Felix Hanke, Paula Havu, Ville Havu,
    Xinguo Ren, Karsten Reuter, and Matthias Scheffler
    'Ab initio molecular simulations with numeric atom-centered orbitals'
    Computer Physics Communications 180, 2175-2196 (2009)
    http://dx.doi.org/10.1016/j.cpc.2009.06.022


  For the analytical stress tensor used in your run, please cite:

    Franz Knuth, Christian Carbogno, Viktor Atalla, Volker Blum, Matthias Scheffler
    'All-electron formalism for total energy strain derivatives and
    stress tensor components for numeric atom-centered orbitals'
    Computer Physics Communications 190, 33-50 (2015).
    http://dx.doi.org/10.1016/j.cpc.2015.01.003


  The scalable eigensolver library ELPA was used in your run.
  ELPA is essential especially for large systems on hundreds or thousands of CPUs.
  For ELPA, please cite:

    Andreas Marek, Volker Blum, Rainer Johanni, Ville Havu, Bruno Lang,
    Thomas Auckenthaler, Alexander Heinecke, Hans-Joachim Bungartz, and Hermann Lederer,
    'The ELPA Library - Scalable Parallel Eigenvalue Solutions
    for Electronic Structure Theory and Computational Science'
    The Journal of Physics: Condensed Matter 26, 213201 (2014).
    http://dx.doi.org/10.1088/0953-8984/26/21/213201


  The ELSI infrastructure was used in your run to solve the Kohn-Sham electronic structure.
  Please check out http://elsi-interchange.org to learn more.
  If scalability is important for your project, please acknowledge ELSI by citing:

    V. W-z. Yu, F. Corsetti, A. Garcia, W. P. Huhn, M. Jacquelin, W. Jia,
    B. Lange, L. Lin, J. Lu, W. Mi, A. Seifitokaldani, A. Vazquez-Mayagoitia,
    C. Yang, H. Yang, and V. Blum
    'ELSI: A unified software interface for Kohn-Sham electronic structure solvers'
    Computer Physics Communications 222, 267-285 (2018).
    http://dx.doi.org/10.1016/j.cpc.2017.09.007


  For the real-space grid partitioning and parallelization used in this calculation, please cite:

    Ville Havu, Volker Blum, Paula Havu, and Matthias Scheffler,
    'Efficient O(N) integration for all-electron electronic structure calculation'
    'using numerically tabulated basis functions'
    Journal of Computational Physics 228, 8367-8379 (2009).
    http://dx.doi.org/10.1016/j.jcp.2009.08.008

  Of course, there are many other important community references, e.g., those cited in the
  above references. Our list is limited to references that describe implementations in the
  FHI-aims code. The reason is purely practical (length of this list) - please credit others as well.

   One or more s.c.f. cycles took more than 50 s.c.f. iterations.
   It might be worth adjusting your convergence settings. For example,
   metals need a larger broadening and a smaller "charge_mix_param" value than semiconductors.

------------------------------------------------------------
          Leaving FHI-aims.
          Date     :  20191127, Time     :  222522.892

          Computational steps:
          | Number of self-consistency cycles          :          165
          | Number of SCF (re)initializations          :            8
          | Number of relaxation steps                 :            7

          Detailed time accounting                     :  max(cpu_time)    wall_clock(cpu1)
          | Total time                                 :     1533.892 s        1532.787 s
          | Preparation time                           :        0.496 s           0.494 s
          | Boundary condition initalization           :       11.584 s          11.520 s
          | Grid partitioning                          :        2.032 s           2.020 s
          | Preloading free-atom quantities on grid    :        0.864 s           0.853 s
          | Free-atom superposition energy             :        0.176 s           0.163 s
          | Total time for integrations                :      288.972 s         288.118 s
          | Total time for solution of K.-S. equations :       63.520 s          63.277 s
          | Total time for EV reorthonormalization     :        0.520 s           0.389 s
          | Total time for density & force components  :     1066.896 s        1065.644 s
          | Total time for mixing & preconditioning    :       16.700 s          16.599 s
          | Total time for Hartree multipole update    :        3.304 s           2.798 s
          | Total time for Hartree multipole sum       :       58.492 s          58.229 s
          | Total time for total energy evaluation     :        0.664 s           0.169 s
          | Total time for scaled ZORA corrections     :        0.000 s           0.000 s
          | Total time for vdW correction              :       21.068 s          21.033 s

          Partial memory accounting:
          | Residual value for overall tracked memory usage across tasks :           0.000 MB (should be 0.000 MB)
          | Peak values for overall tracked memory usage (after allocating wave_pulay):
          |   Minimum:      143.299 MB (on task  9)
          |   Maximum:      156.283 MB (on task 31)
          |   Average:      147.857 MB
          | Largest tracked array allocation (density_matrix_con):
          |   Minimum:       36.466 MB (on task  9)
          |   Maximum:       42.800 MB (on task 31)
          |   Average:       39.013 MB
          Note:  These values currently only include a subset of arrays which are explicitly tracked.
          The "true" memory usage will be greater.

          Have a nice day.
------------------------------------------------------------
