  MPI-parallelism will be employed.
------------------------------------------------------------
          Invoking FHI-aims ...
          Version 171221_1
          Compiled on 2018/11/06 at 11:18:49 on host headnode.

          When using FHI-aims, please cite the following reference:

          Volker Blum, Ralf Gehrke, Felix Hanke, Paula Havu,
          Ville Havu, Xinguo Ren, Karsten Reuter, and Matthias Scheffler,
          'Ab Initio Molecular Simulations with Numeric Atom-Centered Orbitals',
          Computer Physics Communications 180, 2175-2196 (2009)

          For any questions about FHI-aims, please visit the aimsclub website
          with its forums and wiki. Contributions to both the forums and the
          wiki are warmly encouraged - they are for you, and everyone is welcome there.

------------------------------------------------------------



  Date     :  20191128, Time     :  124947.379
  Time zero on CPU 1             :   0.404000000000000E+00  s.
  Internal wall clock time zero  :           344177387.379  s.

  FHI-aims created a unique identifier for this run for later identification
  aims_uuid : 9A01521A-C684-44DE-AE64-A73781BAC9CF

  Using       80 parallel tasks.
  Task        0 on host t033 reporting.
  Task        1 on host t033 reporting.
  Task        2 on host t033 reporting.
  Task        3 on host t033 reporting.
  Task        4 on host t033 reporting.
  Task        5 on host t033 reporting.
  Task        6 on host t033 reporting.
  Task        7 on host t033 reporting.
  Task        8 on host t033 reporting.
  Task        9 on host t033 reporting.
  Task       10 on host t033 reporting.
  Task       11 on host t033 reporting.
  Task       12 on host t033 reporting.
  Task       13 on host t033 reporting.
  Task       14 on host t033 reporting.
  Task       15 on host t033 reporting.
  Task       16 on host t033 reporting.
  Task       17 on host t033 reporting.
  Task       18 on host t033 reporting.
  Task       19 on host t033 reporting.
  Task       20 on host t031 reporting.
  Task       21 on host t031 reporting.
  Task       22 on host t031 reporting.
  Task       23 on host t031 reporting.
  Task       24 on host t031 reporting.
  Task       25 on host t031 reporting.
  Task       26 on host t031 reporting.
  Task       27 on host t031 reporting.
  Task       28 on host t031 reporting.
  Task       29 on host t031 reporting.
  Task       30 on host t031 reporting.
  Task       31 on host t031 reporting.
  Task       32 on host t031 reporting.
  Task       33 on host t031 reporting.
  Task       34 on host t031 reporting.
  Task       35 on host t031 reporting.
  Task       36 on host t031 reporting.
  Task       37 on host t031 reporting.
  Task       38 on host t031 reporting.
  Task       39 on host t031 reporting.
  Task       40 on host t019 reporting.
  Task       41 on host t019 reporting.
  Task       42 on host t019 reporting.
  Task       43 on host t019 reporting.
  Task       44 on host t019 reporting.
  Task       45 on host t019 reporting.
  Task       46 on host t019 reporting.
  Task       47 on host t019 reporting.
  Task       48 on host t019 reporting.
  Task       49 on host t019 reporting.
  Task       50 on host t019 reporting.
  Task       51 on host t019 reporting.
  Task       52 on host t019 reporting.
  Task       53 on host t019 reporting.
  Task       54 on host t019 reporting.
  Task       55 on host t019 reporting.
  Task       56 on host t019 reporting.
  Task       57 on host t019 reporting.
  Task       58 on host t019 reporting.
  Task       59 on host t019 reporting.
  Task       60 on host t018 reporting.
  Task       61 on host t018 reporting.
  Task       62 on host t018 reporting.
  Task       63 on host t018 reporting.
  Task       64 on host t018 reporting.
  Task       65 on host t018 reporting.
  Task       66 on host t018 reporting.
  Task       67 on host t018 reporting.
  Task       68 on host t018 reporting.
  Task       69 on host t018 reporting.
  Task       70 on host t018 reporting.
  Task       71 on host t018 reporting.
  Task       72 on host t018 reporting.
  Task       73 on host t018 reporting.
  Task       74 on host t018 reporting.
  Task       75 on host t018 reporting.
  Task       76 on host t018 reporting.
  Task       77 on host t018 reporting.
  Task       78 on host t018 reporting.
  Task       79 on host t018 reporting.

  Performing system and environment tests:
  | Environment variable OMP_NUM_THREADS correctly set to 1.
  | Stacksize not measured: no C compiler
  | Checking for scalapack...
  | Testing pdtran()...
  | All pdtran() tests passed.

  Obtaining array dimensions for all initial allocations:
  
  -----------------------------------------------------------------------
  Parsing control.in (first pass over file, find array dimensions only).
  The contents of control.in will be repeated verbatim below
  unless switched off by setting 'verbatim_writeout .false.' .
  in the first line of control.in .
  -----------------------------------------------------------------------
  
  #===============================================================================
  # FHI-aims file: ./control.in
  # Created using the Atomic Simulation Environment (ASE)
  # Wed Nov 27 20:14:33 2019
  #
  # List of parameters used to initialize the calculator:
  #     species_dir : /chemsoft/FHI-aims/stable/species_defaults/tight
  #     xc : pbe
  #     spin : none
  #     k_grid : [18, 18, 18]
  #     adjust_scf : once 2
  #     relativistic : ('atomic_zora', 'scalar')
  #===============================================================================
  xc                                 pbe
  many_body_dispersion
  spin                               none
  k_grid                             18 18 18
  adjust_scf                         once 2
  ### geometry optimisation section
  relax_geometry    bfgs    1E-2
  relax_unit_cell       fixed_angles
  relativistic                       atomic_zora scalar
  #===============================================================================
  
  ################################################################################
  #
  #  FHI-aims code project
  # Volker Blum, Fritz Haber Institute Berlin, 2009
  #
  #  Suggested "tight" defaults for Pt atom (to be pasted into control.in file)
  #
  ################################################################################
    species        Pt
  #     global species definitions
      nucleus             78
      mass                195.084
  #
      l_hartree           6
  #
      cut_pot             4.0  2.0  1.0
      basis_dep_cutoff    1e-4
  #
      radial_base         72 7.0
      radial_multiplier   2
      angular_grids specified
        division   0.3279   50
        division   0.7476  110
        division   1.0850  194
        division   1.2652  302
        division   1.6291  434
  #      division   1.9966  590
  #      division   2.1207  770
  #      division   2.1534  974
  #      division   2.7454 1202
  #      outer_grid    974
        outer_grid  434
  ################################################################################
  #
  #  Definition of "minimal" basis
  #
  ################################################################################
  #     valence basis states
      valence      6  s   1.
      valence      5  p   6.
      valence      5  d   9.
      valence      4  f  14.
  #     ion occupancy
      ion_occ     6  s   0.
      ion_occ     5  p   6.
      ion_occ     5  d   8.
      ion_occ     4  f   14.
  ################################################################################
  #
  #  Suggested additional basis functions. For production calculations,
  #  uncomment them one after another (the most important basis functions are
  #  listed first).
  #
  #  Constructed for dimers: 2.00, 2.275, 2.75, 3.75 AA
  #
  ################################################################################
  #  "First tier" - max. impr. -193.66  meV, min. impr. -18.25 meV
       hydro 4 f 7.4
       ionic 6 p auto
       hydro 5 g 9.8
       ionic 6 s auto
       hydro 3 d 2.6
  #  "Second tier" - max. impr. -10.25  meV, min. impr. -0.56 meV
       hydro 6 h 14
       hydro 5 f 14
       hydro 4 d 4
       hydro 3 p 3.3
       hydro 5 g 16.4
       hydro 1 s 0.5
  #  "Third tier" - max. impr. -0.72  meV, min. impr. -0.18 meV
  #     hydro 5 f 9
  #     ionic 5 d auto
  #     hydro 6 h 16.4
  #     hydro 5 g 12.4
  #     hydro 5 g 34
  #     hydro 5 s 13.6
  #     hydro 5 p 10.4
  #  Further functions: ################################################################################
  #
  #  FHI-aims code project
  # Volker Blum, Fritz Haber Institute Berlin, 2009
  #
  #  Suggested "tight" defaults for Se atom (to be pasted into control.in file)
  #
  ################################################################################
    species        Se
  #     global species definitions
      nucleus             34
      mass                78.96
  #
      l_hartree           6
  #
      cut_pot             4.0          2.0  1.0
      basis_dep_cutoff    1e-4
  #
      radial_base         55 7.0
      radial_multiplier   2
      angular_grids       specified
        division   0.0830  110
        division   0.1357  194
        division   0.7377  302
        division   0.8610  434
  #      division   0.9640  590
  #      division   1.0773  770
  #      division   2.5539  974
  #      outer_grid  974
        outer_grid  434
  ################################################################################
  #
  #  Definition of "minimal" basis
  #
  ################################################################################
  #     valence basis states
      valence      4  s   2.
      valence      4  p   4.
      valence      3  d  10.
  #     ion occupancy
      ion_occ      4  s   1.
      ion_occ      4  p   3.
      ion_occ      3  d  10.
  ################################################################################
  #
  #  Suggested additional basis functions. For production calculations,
  #  uncomment them one after another (the most important basis functions are
  #  listed first).
  #
  #  Constructed for dimers: 1.85 A, 2.15 A, 2.50 A, 3.00 A, 4.00 A
  #
  ################################################################################
  #  "First tier" - improvements: -336.21 meV to -36.85 meV
       hydro 3 d 4.3
       hydro 2 p 1.6
       hydro 4 f 7.2
       ionic 4 s auto
  #  "Second tier" - improvements: -14.39 meV to -1.49 meV
       hydro 5 g 10.4
       hydro 4 p 4.5
       hydro 4 d 6.2
       hydro 4 f 11.2
       hydro 1 s 0.65
       hydro 6 h 15.2
  #  "Third tier" - improvements: -0.46 meV and below
  #     hydro 5 g 14.4
  #     ionic 4 d auto
  #     hydro 4 f 22.4
  #     hydro 5 f 7.4
  #     hydro 5 p 8
  #     hydro 5 s 9.4
  #  "Fourth tier" - improvements: -0.12 meV and below
  #     hydro 5 d 11.6
  #     hydro 6 h 18
  #     hydro 4 p 4
  #     hydro 5 f 16
  #     hydro 4 s 3.9
  #
  #
  
  -----------------------------------------------------------------------
  Completed first pass over input file control.in .
  -----------------------------------------------------------------------
  
  
  -----------------------------------------------------------------------
  Parsing geometry.in (first pass over file, find array dimensions only).
  The contents of geometry.in will be repeated verbatim below
  unless switched off by setting 'verbatim_writeout .false.' .
  in the first line of geometry.in .
  -----------------------------------------------------------------------
  
  #=======================================================
  # FHI-aims file: ./geometry.in
  # Created using the Atomic Simulation Environment (ASE)
  # Wed Nov 27 20:14:33 2019
  #=======================================================
  lattice_vector 3.7084545400000000 0.0000000000000000 0.0000000000000000
  lattice_vector -1.8542272700000000 3.2116158399999999 0.0000000000000000
  lattice_vector 0.0000000000000000 0.0000000000000000 4.9329693499999996
  atom 0.0000000000000000 0.0000000000000000 0.0000000000000000 Pt
  atom 0.0000000000000000 2.1410772300000001 3.6435601599999998 Se
  atom 1.8542272700000000 1.0705386100000001 1.2894091900000000 Se
  
  -----------------------------------------------------------------------
  Completed first pass over input file geometry.in .
  -----------------------------------------------------------------------
  

  Basic array size parameters:
  | Number of species                 :        2
  | Number of atoms                   :        3
  | Number of lattice vectors         :        3
  | Max. basis fn. angular momentum   :        5
  | Max. atomic/ionic basis occupied n:        6
  | Max. number of basis fn. types    :        3
  | Max. radial fns per species/type  :       14
  | Max. logarithmic grid size        :     1487
  | Max. radial integration grid size :      145
  | Max. angular integration grid size:      434
  | Max. angular grid division number :        8
  | Radial grid for Hartree potential :     1487
  | Number of spin channels           :        1

------------------------------------------------------------
          Reading file control.in.
------------------------------------------------------------
  XC: Using PBE gradient-corrected functionals.
  Using the default MBD implementation with analytical forces
  Spin treatment: No spin polarisation.
  Found k-point grid:        18        18        18
  S.C.F. convergence parameters will be adjusted in iteration number     2 of the first full s.c.f. cycle only.
  Geometry relaxation: Modified BFGS - TRM (trust radius method, i.e., trusted quadratic extrapolation).
  Convergence accuracy for geometry relaxation: Maximum force <   0.100000E-01 eV/A.
  Scalar relativistic treatment of kinetic energy: on-site free-atom approximation to ZORA.
 
  Reading configuration options for species Pt                  .
  | Found nuclear charge :  78.0000
  | Found atomic mass :    195.084000000000      amu
  | Found l_max for Hartree potential  :   6
  | Found cutoff potl. onset [A], width [A], scale factor :    4.00000    2.00000    1.00000
  | Threshold for basis-dependent cutoff potential is   0.100000E-03
  | Found data for basic radial integration grid :    72 points, outermost radius =    7.000 A
  | Found multiplier for basic radial grid :   2
  | Found angular grid specification: user-specified.
  | Specified grid contains     6 separate shells.
  | Check grid settings after all constraints further below.
  | Found free-atom valence shell :  6 s   1.000
  | Found free-atom valence shell :  5 p   6.000
  | Found free-atom valence shell :  5 d   9.000
  | Found free-atom valence shell :  4 f  14.000
  | Found free-ion valence shell :  6 s   0.000
  | Found free-ion valence shell :  5 p   6.000
  | Found free-ion valence shell :  5 d   8.000
  | Found free-ion valence shell :  4 f  14.000
  | Found hydrogenic basis function :  4 f   7.400
  | Found ionic basis function :  6 p , default cutoff radius.
  | Found hydrogenic basis function :  5 g   9.800
  | Found ionic basis function :  6 s , default cutoff radius.
  | Found hydrogenic basis function :  3 d   2.600
  | Found hydrogenic basis function :  6 h  14.000
  | Found hydrogenic basis function :  5 f  14.000
  | Found hydrogenic basis function :  4 d   4.000
  | Found hydrogenic basis function :  3 p   3.300
  | Found hydrogenic basis function :  5 g  16.400
  | Found hydrogenic basis function :  1 s   0.500
  Species Pt                  : Missing cutoff potential type.
  Defaulting to exp(1/x)/(1-x)^2 type cutoff potential.
  Species Pt: No 'logarithmic' tag. Using default grid for free atom:
  | Default logarithmic grid data [bohr] : 0.1000E-03 0.1000E+03 0.1012E+01
  | Will include ionic basis functions of  2.0-fold positive Pt                   ion.
  Species Pt: On-site basis accuracy parameter (for Gram-Schmidt orthonormalisation) not specified.
  Using default value basis_acc =  0.1000000E-03.
  Species Pt                  : Using default innermost maximum threshold i_radial=  2 for radial functions.
  Species Pt                  : Default cutoff onset for free atom density etc. : 0.40000000E+01 AA.
  Species Pt                  : Basic radial grid will be enhanced according to radial_multiplier =   2, to contain   145 grid points.
 
  Reading configuration options for species Se                  .
  | Found nuclear charge :  34.0000
  | Found atomic mass :    78.9600000000000      amu
  | Found l_max for Hartree potential  :   6
  | Found cutoff potl. onset [A], width [A], scale factor :    4.00000    2.00000    1.00000
  | Threshold for basis-dependent cutoff potential is   0.100000E-03
  | Found data for basic radial integration grid :    55 points, outermost radius =    7.000 A
  | Found multiplier for basic radial grid :   2
  | Found angular grid specification: user-specified.
  | Specified grid contains     5 separate shells.
  | Check grid settings after all constraints further below.
  | Found free-atom valence shell :  4 s   2.000
  | Found free-atom valence shell :  4 p   4.000
  | Found free-atom valence shell :  3 d  10.000
  | Found free-ion valence shell :  4 s   1.000
  | Found free-ion valence shell :  4 p   3.000
  | Found free-ion valence shell :  3 d  10.000
  | Found hydrogenic basis function :  3 d   4.300
  | Found hydrogenic basis function :  2 p   1.600
  | Found hydrogenic basis function :  4 f   7.200
  | Found ionic basis function :  4 s , default cutoff radius.
  | Found hydrogenic basis function :  5 g  10.400
  | Found hydrogenic basis function :  4 p   4.500
  | Found hydrogenic basis function :  4 d   6.200
  | Found hydrogenic basis function :  4 f  11.200
  | Found hydrogenic basis function :  1 s   0.650
  | Found hydrogenic basis function :  6 h  15.200
  Species Se                  : Missing cutoff potential type.
  Defaulting to exp(1/x)/(1-x)^2 type cutoff potential.
  Species Se: No 'logarithmic' tag. Using default grid for free atom:
  | Default logarithmic grid data [bohr] : 0.1000E-03 0.1000E+03 0.1012E+01
  | Will include ionic basis functions of  2.0-fold positive Se                   ion.
  Species Se: On-site basis accuracy parameter (for Gram-Schmidt orthonormalisation) not specified.
  Using default value basis_acc =  0.1000000E-03.
  Species Se                  : Using default innermost maximum threshold i_radial=  2 for radial functions.
  Species Se                  : Default cutoff onset for free atom density etc. : 0.40000000E+01 AA.
  Species Se                  : Basic radial grid will be enhanced according to radial_multiplier =   2, to contain   111 grid points.
  | MBD: Using the same k-grid sampling as DFT
 
  Finished reading input file 'control.in'. Consistency checks are next.
 
  MPI_IN_PLACE appears to work with this MPI implementation.
  | Keeping use_mpi_in_place .true. (see manual).
  Target number of points in a grid batch is not set. Defaulting to  100
  Method for grid partitioning is not set. Defaulting to parallel hash+maxmin partitioning.
  Batch size limit is not set. Defaulting to    200
  By default, will store active basis functions for each batch.
  If in need of memory, prune_basis_once .false. can be used to disable this option.
  communication_type for Hartree potential was not specified.
  Defaulting to calc_hartree .
  Defaulting to Pulay charge density mixer.
  Pulay mixer: Number of relevant iterations not set.
  Defaulting to    8 iterations.
  Pulay mixer: Number of initial linear mixing iterations not set.
  Defaulting to    0 iterations.
  Work space size for distributed Hartree potential not set.
  Defaulting to   0.200000E+03 MB.
  Mixing parameter for charge density mixing has not been set.
  Using default: charge_mix_param =     0.0500.
  The mixing parameter will be adjusted in iteration number     2 of the first full s.c.f. cycle only.
  Algorithm-dependent basis array size parameters:
  | n_max_pulay                         :        8
 * Notice: The s.c.f. convergence criterion sc_accuracy_rho was not provided.
 * We used to stop in this case, and ask the user to provide reasonable
 * scf convergence criteria. However, this led some users to employ criteria
 * that led to extremely long run times, e.g., for simple relaxation.
 * We now preset a default value for sc_accuracy_rho if it is not set.
 * You may still wish to check if this setting is too tight or too loose for your needs.
 * Based on n_atoms, FHI-aims chose sc_accuracy_rho =  0.100000E-05 .
  Maximum number of self-consistency iterations not provided.
  Presetting  1000 iterations.
  Presetting      1001 iterations before the initial mixing cycle
  is restarted anyway using the sc_init_iter criterion / keyword.
  Presetting a factor      1.000 between actual scf density residual
  and density convergence criterion sc_accuracy_rho below which sc_init_iter
  takes no effect.
 * No s.c.f. convergence criteria (sc_accuracy_*) were provided in control.in.
 * The run will proceed with a reasonable default guess, but please check whether.
 * the s.c.f. cycles seem to take too much or too little time.
  No maximum number of relaxation steps, defaulting to     1000
  Default initial Hessian is Lindh matrix (thres = 15.00) plus  0.200000E+01 eV/A^2 times unity.
  No maximum energy tolerance for TRM/BFGS moves, defaulting to   0.200000E-03
  No harmonic length scale. Defaulting to   0.250000E-01 A.
  No trust radius initializer. Defaulting to   0.200000E+00 A.
  Unit cell relaxation: Restricted relaxation with fixed angles between lattice vectors.
  Unit cell relaxation: Analytical stress will be used.
  Analytical stress will be computed.
  Analytical stress calculation: Only the upper triangle is calculated.
                                 Final output is symmetrized.
  Analytical stress calculation: scf convergence accuracy of stress not set.
                                 Analytical stress self-consistency will not be checked explicitly.
                                 Be sure to set other criteria like sc_accuracy_rho tight enough.
  Force calculation: scf convergence accuracy of forces not set.
  Defaulting to 'sc_accuracy_forces not_checked'.
  Handling of forces: Unphysical translation and rotation will be removed from forces.
  No accuracy limit for integral partition fn. given. Defaulting to  0.1000E-14.
  No threshold value for u(r) in integrations given. Defaulting to  0.1000E-05.
  No occupation type (smearing scheme) given. Defaulting to Gaussian broadening, width =  0.1000E-01 eV.
  The width will be adjusted in iteration number     2 of the first full s.c.f. cycle only.
  S.C.F. convergence parameters will be adjusted in iteration number     2 of the first full s.c.f. cycle only.
  No accuracy for occupation numbers given. Defaulting to  0.1000E-12.
  No threshold value for occupation numbers given. Defaulting to  0.0000E+00.
  No accuracy for fermi level given. Defaulting to  0.1000E-19.
  Maximum # of iterations to find E_F not set. Defaulting to  200.
  Preferred method for the eigenvalue solver ('KS_method') not specified in 'control.in'.
  Defaulting to serial version, 'lapack_fast', since more k-points than CPUs available.
  Will not use alltoall communication since running on < 1024 CPUs.
  Threshold for basis singularities not set.
  Default threshold for basis singularities:  0.1000E-04
  partition_type (choice of integration weights) for integrals was not specified.
  | Using a version of the partition function of Stratmann and coworkers ('stratmann_smoother').
  | At each grid point, the set of atoms used to build the partition table is smoothly restricted to
  | only those atoms whose free-atom density would be non-zero at that grid point.
  Partitioning for Hartree potential was not defined. Using partition_type for integrals.
  | Adjusted default value of keyword multip_moments_threshold to:       0.10000000E-11
  | This value may affect high angular momentum components of the Hartree potential in periodic systems.
  Angular momentum expansion for Kerker preconditioner not set explicitly.
  | Using default value of   0
  No explicit requirement for turning off preconditioner.
  | By default, it will be turned off when the charge convergence reaches
  | sc_accuracy_rho  =   0.100000E-05
  No special mixing parameter while Kerker preconditioner is on.
  Using default: charge_mix_param =     0.0500.
  No q(lm)/r^(l+1) cutoff set for long-range Hartree potential.
  | Using default value of  0.100000E-09 .
  | Verify using the multipole_threshold keyword.
  Defaulting to new monopole extrapolation.
  Density update method: automatic selection selected.
  Using density matrix based charge density update.
  Using density matrix based charge density update.
  Using packed matrix style: index .
  Geometry relaxation: A file "geometry.in.next_step" is written out by default after each step.
  | This file contains the geometry of the current relaxation step as well as
  | the current Hessian matrix needed to restart the relaxation algorithm.
  | If you do not want part or all of this information, use the keywords
  | "write_restart_geometry" or "hessian_to_restart_geometry" to switch the output off.
  Defaulting to use time-reversal symmetry for k-point grid.
------------------------------------------------------------


------------------------------------------------------------
          Reading geometry description geometry.in.
------------------------------------------------------------
  Input structure read successfully.
  The structure contains        3 atoms,  and a total of        146.000 electrons.

  Input geometry:
  | Unit cell:
  |        3.70845454        0.00000000        0.00000000
  |       -1.85422727        3.21161584        0.00000000
  |        0.00000000        0.00000000        4.93296935
  | Atomic structure:
  |       Atom                x [A]            y [A]            z [A]
  |    1: Species Pt            0.00000000        0.00000000        0.00000000
  |    2: Species Se            0.00000000        2.14107723        3.64356016
  |    3: Species Se            1.85422727        1.07053861        1.28940919

  Lattice parameters for 3D lattice (in Angstroms) :     3.708455    3.708455    4.932969
  Angle(s) between unit vectors (in degrees)      :    90.000000   90.000000  120.000000

  |

  | The smallest distance between any two atoms is         2.49935747 AA.
  |
  | The first atom of this pair is atom number                      1 .
  | The second atom of this pair is atom number                     2 .
  | Wigner-Seitz cell of the first atom image           0     0     0 .
  | (The Wigner-Seitz cell of the second atom is 0 0 0  by definition.)

  Quantities derived from the lattice vectors:
  | Reciprocal lattice vector 1:  1.694287  0.978197  0.000000
  | Reciprocal lattice vector 2: -0.000000  1.956394  0.000000
  | Reciprocal lattice vector 3:  0.000000  0.000000  1.273713
  | Unit cell volume                               :   0.587523E+02  A^3

  Range separation radius for Ewald summation (hartree_convergence_parameter):      3.85733215 bohr.

  Fractional coordinates:
                         L1                L2                L3
       atom_frac         0.00000000        0.00000000        0.00000000  Pt
       atom_frac         0.33333333        0.66666667        0.73861399  Se
       atom_frac         0.66666667        0.33333333        0.26138601  Se

  Number of empty states per atom not set in control.in - providing a guess from actual geometry.
  | Total number of empty states used during s.c.f. cycle:       20
  If you use a very high smearing, use empty_states (per atom!) in control.in to increase this value.

  Structure-dependent array size parameters: 
  | Maximum number of distinct radial functions  :       43
  | Maximum number of basis functions            :      241
  | Number of Kohn-Sham states (occupied + empty):       93
------------------------------------------------------------

------------------------------------------------------------
          Preparing all fixed parts of the calculation.
------------------------------------------------------------
  Determining machine precision:
    2.225073858507201E-308
  Setting up grids for atomic and cluster calculations.

  Creating wave function, potential, and density for free atoms.

  Species: Pt

  List of occupied orbitals and eigenvalues:
    n    l              occ      energy [Ha]    energy [eV]
    1    0           2.0000     -3153.103304    -85800.3064
    2    0           2.0000      -515.589489    -14029.9038
    3    0           2.0000      -119.501787     -3251.8091
    4    0           2.0000       -25.569766      -695.7887
    5    0           2.0000        -3.736651      -101.6795
    6    0           1.0000        -0.206416        -5.6169
    2    1           6.0000      -445.953190    -12135.0037
    3    1           6.0000       -99.656176     -2711.7825
    4    1           6.0000       -19.104871      -519.8700
    5    1           6.0000        -2.054483       -55.9053
    3    2          10.0000       -78.244476     -2129.1405
    4    2          10.0000       -11.276663      -306.8536
    5    2           9.0000        -0.224682        -6.1139
    4    3          14.0000        -2.581704       -70.2517


  Species: Se

  List of occupied orbitals and eigenvalues:
    n    l              occ      energy [Ha]    energy [eV]
    1    0           2.0000      -466.337810    -12689.6975
    2    0           2.0000       -59.202598     -1610.9847
    3    0           2.0000        -7.847116      -213.5309
    4    0           2.0000        -0.634372       -17.2621
    2    1           6.0000       -52.061107     -1416.6548
    3    1           6.0000        -5.620941      -152.9536
    4    1           4.0000        -0.238469        -6.4891
    3    2          10.0000        -1.951949       -53.1152

  Creating fixed part of basis set: Ionic, confined, hydrogenic.
 
  Pt                   ion:

  List of free ionic orbitals and eigenvalues:
    n    l      energy [Ha]    energy [eV]
    1    0     -3153.944388    -85823.1934
    2    0      -516.374474    -14051.2643
    3    0      -120.278274     -3272.9384
    4    0       -26.344243      -716.8633
    5    0        -4.507613      -122.6584
    2    1      -446.736765    -12156.3259
    3    1      -100.432254     -2732.9007
    4    1       -19.879176      -540.9399
    5    1        -2.820901       -76.7606
    3    2       -79.020090     -2150.2461
    4    2       -12.050716      -327.9167
    5    2        -0.950990       -25.8778
    4    3        -3.355307       -91.3026


  List of ionic basis orbitals and eigenvalues:
    n    l      energy [Ha]    energy [eV]    outer radius [A]
    6    1        -0.526730       -14.3331       5.414053
    6    0        -0.812719       -22.1152       5.155675

 
  Pt                   hydrogenic:
 
  List of hydrogenic basis orbitals: 
    n    l      effective z      eigenvalue [eV]  inner max. [A]     outer max. [A]     outer radius [A]   
    4    3         7.400000       -46.5653           1.146169           1.146169           4.909628
    5    4         9.800000       -52.2674           1.343596           1.343596           5.155675
    3    2         2.600000       -10.1361           1.823895           1.823895           5.480646
    6    5        14.000000       -74.0753           1.360123           1.360123           4.849973
    5    3        14.000000      -106.6686           0.458200           1.233400           4.188210
    4    2         4.000000       -13.2388           0.897561           2.730266           5.480646
    3    1         3.300000       -16.4334           0.481163           1.915300           5.480646
    5    4        16.400000      -146.3754           0.804045           0.804045           3.529385
    1    0         0.500000        -3.3476           1.052165           1.052165           5.480646
 
 
  Se                   ion:

  List of free ionic orbitals and eigenvalues:
    n    l      energy [Ha]    energy [eV]
    1    0      -467.261007    -12714.8189
    2    0       -60.104893     -1635.5374
    3    0        -8.743714      -237.9286
    4    0        -1.414053       -38.4783
    2    1       -52.964156     -1441.2280
    3    1        -6.516916      -177.3343
    4    1        -0.961869       -26.1738
    3    2        -2.844511       -77.4031


  List of ionic basis orbitals and eigenvalues:
    n    l      energy [Ha]    energy [eV]    outer radius [A]
    4    0        -1.414046       -38.4782       4.083166

 
  Se                   hydrogenic:
 
  List of hydrogenic basis orbitals: 
    n    l      effective z      eigenvalue [eV]  inner max. [A]     outer max. [A]     outer radius [A]   
    3    2         4.300000       -27.9518           1.103845           1.103845           5.278265
    2    1         1.600000        -8.6828           1.326010           1.326010           5.475439
    4    3         7.200000       -44.0822           1.173422           1.173422           4.965294
    5    4        10.400000       -58.8635           1.278259           1.278259           4.904963
    4    1         4.500000       -16.9509           0.333121           2.727671           5.475439
    4    2         6.200000       -32.6848           0.577455           1.800022           5.408909
    4    3        11.200000      -106.6686           0.755651           0.755651           3.657749
    1    0         0.650000        -5.7375           0.813162           0.813162           5.408909
    6    5        15.200000       -87.3182           1.247385           1.247385           4.614127
 

  Adding cutoff potential to free-atom effective potential.
  Creating atomic-like basis functions for current effective potential.

  Species Pt                  :

  List of atomic basis orbitals and eigenvalues:
    n    l      energy [Ha]    energy [eV]    outer radius [A]
    1    0     -3153.103304    -85800.3064       0.122365
    2    0      -515.589489    -14029.9038       0.321431
    3    0      -119.501787     -3251.8091       0.669333
    4    0       -25.569766      -695.7887       1.393787
    5    0        -3.736651      -101.6795       3.402290
    6    0        -0.206416        -5.6169       5.414053
    2    1      -445.953190    -12135.0037       0.333438
    3    1       -99.656176     -2711.7825       0.720273
    4    1       -19.104871      -519.8700       1.575030
    5    1        -2.054483       -55.9053       4.398103
    3    2       -78.244476     -2129.1405       0.765673
    4    2       -11.276663      -306.8536       1.915300
    5    2        -0.224682        -6.1139       5.348269
    4    3        -2.581704       -70.2517       3.402290


  Species Se                  :

  List of atomic basis orbitals and eigenvalues:
    n    l      energy [Ha]    energy [eV]    outer radius [A]
    1    0      -466.337810    -12689.6975       0.309561
    2    0       -59.202598     -1610.9847       0.885812
    3    0        -7.847116      -213.5309       2.355489
    4    0        -0.634372       -17.2621       5.214131
    2    1       -52.061107     -1416.6548       0.907737
    3    1        -5.620941      -152.9536       2.694529
    4    1        -0.238469        -6.4891       5.408909
    3    2        -1.951949       -53.1152       4.083166

  Assembling full basis from fixed parts.
  | Species Pt :   atomic orbital   1 s accepted.
  | Species Pt :   atomic orbital   2 s accepted.
  | Species Pt :   atomic orbital   3 s accepted.
  | Species Pt :   atomic orbital   4 s accepted.
  | Species Pt :   atomic orbital   5 s accepted.
  | Species Pt :    ionic orbital   6 s accepted.
  | Species Pt :   atomic orbital   6 s accepted.
  | Species Pt :    hydro orbital   1 s accepted.
  | Species Pt :   atomic orbital   2 p accepted.
  | Species Pt :   atomic orbital   3 p accepted.
  | Species Pt :   atomic orbital   4 p accepted.
  | Species Pt :   atomic orbital   5 p accepted.
  | Species Pt :    ionic orbital   6 p accepted.
  | Species Pt :    hydro orbital   3 p accepted.
  | Species Pt :   atomic orbital   3 d accepted.
  | Species Pt :   atomic orbital   4 d accepted.
  | Species Pt :   atomic orbital   5 d accepted.
  | Species Pt :    hydro orbital   3 d accepted.
  | Species Pt :    hydro orbital   4 d accepted.
  | Species Pt :   atomic orbital   4 f accepted.
  | Species Pt :    hydro orbital   5 f accepted.
  | Species Pt :    hydro orbital   4 f accepted.
  | Species Pt :    hydro orbital   5 g accepted.
  | Species Pt :    hydro orbital   5 g accepted.
  | Species Pt :    hydro orbital   6 h accepted.
  | Species Se :   atomic orbital   1 s accepted.
  | Species Se :   atomic orbital   2 s accepted.
  | Species Se :   atomic orbital   3 s accepted.
  | Species Se :    ionic orbital   4 s accepted.
  | Species Se :   atomic orbital   4 s accepted.
  | Species Se :    hydro orbital   1 s accepted.
  | Species Se :   atomic orbital   2 p accepted.
  | Species Se :   atomic orbital   3 p accepted.
  | Species Se :   atomic orbital   4 p accepted.
  | Species Se :    hydro orbital   2 p accepted.
  | Species Se :    hydro orbital   4 p accepted.
  | Species Se :   atomic orbital   3 d accepted.
  | Species Se :    hydro orbital   3 d accepted.
  | Species Se :    hydro orbital   4 d accepted.
  | Species Se :    hydro orbital   4 f accepted.
  | Species Se :    hydro orbital   4 f accepted.
  | Species Se :    hydro orbital   5 g accepted.
  | Species Se :    hydro orbital   6 h accepted.
 
  Basis size parameters after reduction:
  | Total number of radial functions:       43
  | Total number of basis functions :      241
 
  Per-task memory consumption for arrays in subroutine allocate_ext:
  |          16.376856MB.
  Testing on-site integration grid accuracy.
  |  Species  Function  <phi|h_atom|phi> (log., in eV)  <phi|h_atom|phi> (rad., in eV)
           1        1             -85800.3063919402             -85800.2856196525
           1        2             -14029.9038190300             -14029.9034024833
           1        3              -3251.8090796931              -3251.8090493723
           1        4               -695.7887467633               -695.7887380841
           1        5               -101.6794541333               -101.6794523387
           1        6                 -5.0775855766                 -5.0775852323
           1        7                  4.7711468026                  4.7712019690
           1        8                 24.7621144153                 24.7637521561
           1        9             -12135.0037192377             -12135.0037104521
           1       10              -2711.7825232731              -2711.7825171064
           1       11               -519.8699987955               -519.8699936807
           1       12                -55.9053342201                -55.9053330049
           1       13                  0.5776141106                  0.5776162192
           1       14                 15.3530163339                 15.3530453770
           1       15              -2129.1405232679              -2129.1405210333
           1       16               -306.8536046277               -306.8536019160
           1       17                 -6.1140333556                 -6.1140328158
           1       18                  6.1273756157                  6.1274132679
           1       19                 21.1217396517                 21.1218670362
           1       20                -70.2517499686                -70.2517493411
           1       21                 47.5530142072                 47.5530141509
           1       22                 77.5537547556                 77.5537547298
           1       23                 81.3853022746                 81.3853022953
           1       24                 48.9012910981                 48.9012910010
           1       25                 58.5611580732                 58.5611580585
           2       26             -12689.6974611609             -12689.6967666984
           2       27              -1610.9846578580              -1610.9846472470
           2       28               -213.5308789869               -213.5308777267
           2       29                -17.0464428502                -17.0464426496
           2       30                  6.7356859379                  6.7356842047
           2       31                 16.3222979729                 16.3222286215
           2       32              -1416.6548010133              -1416.6548002108
           2       33               -152.9535734377               -152.9535727493
           2       34                 -6.4896265677                 -6.4896303794
           2       35                  5.2703037283                  5.2701679583
           2       36                 24.5827617535                 24.5824715668
           2       37                -53.1152220964                -53.1152219035
           2       38                  7.6186674138                  7.6186665630
           2       39                 26.7015845260                 26.7015708238
           2       40                 49.4570230857                 49.4570230427
           2       41                 39.6372293866                 39.6372304734
           2       42                 42.1067201496                 42.1067200432
           2       43                 70.4166767372                 70.4166768848

  Preparing densities etc. for the partition functions (integrals / Hartree potential).

  Preparations completed.
  max(cpu_time)          :      0.560 s.
  Wall clock time (cpu1) :      0.557 s.
------------------------------------------------------------

------------------------------------------------------------
          Begin self-consistency loop: Initialization.

          Date     :  20191128, Time     :  124948.015
------------------------------------------------------------

  Initializing index lists of integration centers etc. from given atomic structure:
  Mapping all atomic coordinates to central unit cell.

  Initializing the k-points
          Using symmetry for reducing the k-points
  | k-points reduced from:     5832 to     2920
  | Number of k-points                             :      2920
  The eigenvectors in the calculations are COMPLEX.
  | K-points in task   0:        36
  | K-points in task   1:        37
  | K-points in task   2:        37
  | K-points in task   3:        37
  | K-points in task   4:        37
  | K-points in task   5:        37
  | K-points in task   6:        37
  | K-points in task   7:        37
  | K-points in task   8:        37
  | K-points in task   9:        37
  | K-points in task  10:        37
  | K-points in task  11:        37
  | K-points in task  12:        37
  | K-points in task  13:        37
  | K-points in task  14:        37
  | K-points in task  15:        37
  | K-points in task  16:        37
  | K-points in task  17:        37
  | K-points in task  18:        37
  | K-points in task  19:        37
  | K-points in task  20:        37
  | K-points in task  21:        37
  | K-points in task  22:        37
  | K-points in task  23:        37
  | K-points in task  24:        37
  | K-points in task  25:        37
  | K-points in task  26:        37
  | K-points in task  27:        37
  | K-points in task  28:        37
  | K-points in task  29:        37
  | K-points in task  30:        37
  | K-points in task  31:        37
  | K-points in task  32:        37
  | K-points in task  33:        37
  | K-points in task  34:        37
  | K-points in task  35:        37
  | K-points in task  36:        37
  | K-points in task  37:        37
  | K-points in task  38:        37
  | K-points in task  39:        37
  | K-points in task  40:        37
  | K-points in task  41:        36
  | K-points in task  42:        36
  | K-points in task  43:        36
  | K-points in task  44:        36
  | K-points in task  45:        36
  | K-points in task  46:        36
  | K-points in task  47:        36
  | K-points in task  48:        36
  | K-points in task  49:        36
  | K-points in task  50:        36
  | K-points in task  51:        36
  | K-points in task  52:        36
  | K-points in task  53:        36
  | K-points in task  54:        36
  | K-points in task  55:        36
  | K-points in task  56:        36
  | K-points in task  57:        36
  | K-points in task  58:        36
  | K-points in task  59:        36
  | K-points in task  60:        36
  | K-points in task  61:        36
  | K-points in task  62:        36
  | K-points in task  63:        36
  | K-points in task  64:        36
  | K-points in task  65:        36
  | K-points in task  66:        36
  | K-points in task  67:        36
  | K-points in task  68:        36
  | K-points in task  69:        36
  | K-points in task  70:        36
  | K-points in task  71:        36
  | K-points in task  72:        36
  | K-points in task  73:        36
  | K-points in task  74:        36
  | K-points in task  75:        36
  | K-points in task  76:        36
  | K-points in task  77:        36
  | K-points in task  78:        36
  | K-points in task  79:        36
  | Number of basis functions in the Hamiltonian integrals :      7601
  | Number of basis functions in a single unit cell        :       241
  | Number of centers in hartree potential         :       987
  | Number of centers in hartree multipole         :       571
  | Number of centers in electron density summation:       417
  | Number of centers in basis integrals           :       455
  | Number of centers in integrals                 :       161
  | Number of centers in hamiltonian               :       417
  | Consuming       7756 KiB for k_phase.
  | Number of super-cells (origin) [n_cells]                     :        1521
  | Number of super-cells (after PM_index) [n_cells]             :         170
  | Number of super-cells in hamiltonian [n_cells_in_hamiltonian]:         170
  | Size of matrix packed + index [n_hamiltonian_matrix_size] :     1602434
  Initializing relaxation algorithms.
  Partitioning the integration grid into batches with parallel hashing+maxmin method.
  | Number of batches:     1300
  | Maximal batch size:     109
  | Minimal batch size:       1
  | Average batch size:      76.562
  | Standard deviation of batch sizes:      14.110

  Integration load balanced across    80 MPI tasks.
  Work distribution over tasks is as follows:
  Task     0 has       1260 integration points.
  Task     1 has       1252 integration points.
  Task     2 has       1211 integration points.
  Task     3 has       1267 integration points.
  Task     4 has       1239 integration points.
  Task     5 has       1254 integration points.
  Task     6 has       1208 integration points.
  Task     7 has       1205 integration points.
  Task     8 has       1219 integration points.
  Task     9 has       1251 integration points.
  Task    10 has       1263 integration points.
  Task    11 has       1250 integration points.
  Task    12 has       1257 integration points.
  Task    13 has       1256 integration points.
  Task    14 has       1247 integration points.
  Task    15 has       1260 integration points.
  Task    16 has       1247 integration points.
  Task    17 has       1260 integration points.
  Task    18 has       1210 integration points.
  Task    19 has       1247 integration points.
  Task    20 has       1265 integration points.
  Task    21 has       1207 integration points.
  Task    22 has       1259 integration points.
  Task    23 has       1260 integration points.
  Task    24 has       1263 integration points.
  Task    25 has       1255 integration points.
  Task    26 has       1238 integration points.
  Task    27 has       1262 integration points.
  Task    28 has       1214 integration points.
  Task    29 has       1217 integration points.
  Task    30 has       1241 integration points.
  Task    31 has       1255 integration points.
  Task    32 has       1255 integration points.
  Task    33 has       1242 integration points.
  Task    34 has       1253 integration points.
  Task    35 has       1257 integration points.
  Task    36 has       1258 integration points.
  Task    37 has       1262 integration points.
  Task    38 has       1254 integration points.
  Task    39 has       1207 integration points.
  Task    40 has       1252 integration points.
  Task    41 has       1244 integration points.
  Task    42 has       1250 integration points.
  Task    43 has       1251 integration points.
  Task    44 has       1259 integration points.
  Task    45 has       1245 integration points.
  Task    46 has       1204 integration points.
  Task    47 has       1250 integration points.
  Task    48 has       1257 integration points.
  Task    49 has       1244 integration points.
  Task    50 has       1250 integration points.
  Task    51 has       1248 integration points.
  Task    52 has       1241 integration points.
  Task    53 has       1253 integration points.
  Task    54 has       1250 integration points.
  Task    55 has       1212 integration points.
  Task    56 has       1252 integration points.
  Task    57 has       1261 integration points.
  Task    58 has       1253 integration points.
  Task    59 has       1262 integration points.
  Task    60 has       1258 integration points.
  Task    61 has       1234 integration points.
  Task    62 has       1241 integration points.
  Task    63 has       1209 integration points.
  Task    64 has       1243 integration points.
  Task    65 has       1252 integration points.
  Task    66 has       1262 integration points.
  Task    67 has       1256 integration points.
  Task    68 has       1262 integration points.
  Task    69 has       1255 integration points.
  Task    70 has       1203 integration points.
  Task    71 has       1237 integration points.
  Task    72 has       1207 integration points.
  Task    73 has       1255 integration points.
  Task    74 has       1257 integration points.
  Task    75 has       1246 integration points.
  Task    76 has       1263 integration points.
  Task    77 has       1252 integration points.
  Task    78 has       1210 integration points.
  Task    79 has       1203 integration points.
  Initializing partition tables, free-atom densities, potentials, etc. across the integration grid (initialize_grid_storage).
  | initialize_grid_storage: Actual outermost partition radius vs. multipole_radius_free
  | (-- VB: in principle, multipole_radius_free should be larger, hence this output)
  | Species        1: Confinement radius =              6.000000000000000 AA, multipole_radius_free =              6.043738901464199 AA.
  | Species        1: outer_partition_radius set to              6.043738901464199 AA .
  | Species        2: Confinement radius =              6.000000000000000 AA, multipole_radius_free =              6.037996416842453 AA.
  | Species        2: outer_partition_radius set to              6.037996416842453 AA .
  | Original list of interatomic distances with         455 x        455 entries is created.
  | Net number of integration points:    99530
  | of which are non-zero points    :    82744
  | Numerical average free-atom electrostatic potential    :    -20.55484899 eV
  Renormalizing the initial density to the exact electron count on the 3D integration grid.
  | Initial density: Formal number of electrons (from input files) :     146.0000000000
  | Integrated number of electrons on 3D grid     :     146.0001337643
  | Charge integration error                      :       0.0001337643
  | Normalization factor for density and gradient :       0.9999990838
  Obtaining max. number of non-zero basis functions in each batch (get_n_compute_maxes).
  | Maximal number of non-zero basis functions:     2214 in task     0
  | Maximal number of non-zero basis functions:     2250 in task     1
  | Maximal number of non-zero basis functions:     2214 in task     2
  | Maximal number of non-zero basis functions:     2240 in task     3
  | Maximal number of non-zero basis functions:     2207 in task     4
  | Maximal number of non-zero basis functions:     2195 in task     5
  | Maximal number of non-zero basis functions:     2222 in task     6
  | Maximal number of non-zero basis functions:     2210 in task     7
  | Maximal number of non-zero basis functions:     2205 in task     8
  | Maximal number of non-zero basis functions:     2179 in task     9
  | Maximal number of non-zero basis functions:     2217 in task    10
  | Maximal number of non-zero basis functions:     2211 in task    11
  | Maximal number of non-zero basis functions:     2211 in task    12
  | Maximal number of non-zero basis functions:     2193 in task    13
  | Maximal number of non-zero basis functions:     2230 in task    14
  | Maximal number of non-zero basis functions:     2224 in task    15
  | Maximal number of non-zero basis functions:     2169 in task    16
  | Maximal number of non-zero basis functions:     2240 in task    17
  | Maximal number of non-zero basis functions:     2251 in task    18
  | Maximal number of non-zero basis functions:     2230 in task    19
  | Maximal number of non-zero basis functions:     2245 in task    20
  | Maximal number of non-zero basis functions:     2219 in task    21
  | Maximal number of non-zero basis functions:     2269 in task    22
  | Maximal number of non-zero basis functions:     2258 in task    23
  | Maximal number of non-zero basis functions:     2244 in task    24
  | Maximal number of non-zero basis functions:     2209 in task    25
  | Maximal number of non-zero basis functions:     2198 in task    26
  | Maximal number of non-zero basis functions:     2257 in task    27
  | Maximal number of non-zero basis functions:     2190 in task    28
  | Maximal number of non-zero basis functions:     2190 in task    29
  | Maximal number of non-zero basis functions:     2190 in task    30
  | Maximal number of non-zero basis functions:     2291 in task    31
  | Maximal number of non-zero basis functions:     2179 in task    32
  | Maximal number of non-zero basis functions:     2247 in task    33
  | Maximal number of non-zero basis functions:     2259 in task    34
  | Maximal number of non-zero basis functions:     2197 in task    35
  | Maximal number of non-zero basis functions:     2233 in task    36
  | Maximal number of non-zero basis functions:     2195 in task    37
  | Maximal number of non-zero basis functions:     2222 in task    38
  | Maximal number of non-zero basis functions:     2203 in task    39
  | Maximal number of non-zero basis functions:     2234 in task    40
  | Maximal number of non-zero basis functions:     2234 in task    41
  | Maximal number of non-zero basis functions:     2226 in task    42
  | Maximal number of non-zero basis functions:     2186 in task    43
  | Maximal number of non-zero basis functions:     2212 in task    44
  | Maximal number of non-zero basis functions:     2188 in task    45
  | Maximal number of non-zero basis functions:     2203 in task    46
  | Maximal number of non-zero basis functions:     2177 in task    47
  | Maximal number of non-zero basis functions:     2261 in task    48
  | Maximal number of non-zero basis functions:     2205 in task    49
  | Maximal number of non-zero basis functions:     2201 in task    50
  | Maximal number of non-zero basis functions:     2250 in task    51
  | Maximal number of non-zero basis functions:     2193 in task    52
  | Maximal number of non-zero basis functions:     2210 in task    53
  | Maximal number of non-zero basis functions:     2215 in task    54
  | Maximal number of non-zero basis functions:     2231 in task    55
  | Maximal number of non-zero basis functions:     2248 in task    56
  | Maximal number of non-zero basis functions:     2221 in task    57
  | Maximal number of non-zero basis functions:     2261 in task    58
  | Maximal number of non-zero basis functions:     2236 in task    59
  | Maximal number of non-zero basis functions:     2195 in task    60
  | Maximal number of non-zero basis functions:     2219 in task    61
  | Maximal number of non-zero basis functions:     2241 in task    62
  | Maximal number of non-zero basis functions:     2157 in task    63
  | Maximal number of non-zero basis functions:     2192 in task    64
  | Maximal number of non-zero basis functions:     2207 in task    65
  | Maximal number of non-zero basis functions:     2259 in task    66
  | Maximal number of non-zero basis functions:     2207 in task    67
  | Maximal number of non-zero basis functions:     2331 in task    68
  | Maximal number of non-zero basis functions:     2217 in task    69
  | Maximal number of non-zero basis functions:     2214 in task    70
  | Maximal number of non-zero basis functions:     2158 in task    71
  | Maximal number of non-zero basis functions:     2225 in task    72
  | Maximal number of non-zero basis functions:     2204 in task    73
  | Maximal number of non-zero basis functions:     2181 in task    74
  | Maximal number of non-zero basis functions:     2224 in task    75
  | Maximal number of non-zero basis functions:     2212 in task    76
  | Maximal number of non-zero basis functions:     2206 in task    77
  | Maximal number of non-zero basis functions:     2288 in task    78
  | Maximal number of non-zero basis functions:     2226 in task    79
  Allocating       12.910 MB for KS_eigenvector_complex
  Integrating Hamiltonian matrix: batch-based integration.
  Time summed over all CPUs for integration: real work       74.248 s, elapsed       83.255 s
  Integrating overlap matrix.
  Time summed over all CPUs for integration: real work       58.601 s, elapsed       66.118 s
  Decreasing sparse matrix size:
   Tolerance:  9.999999824516700E-014
   Hamiltonian matrix
  | Array has  1277399 nonzero elements out of  1602434 elements
  | Sparsity factor is 0.203
   Overlap matrix
  | Array has  1174823 nonzero elements out of  1602434 elements
  | Sparsity factor is 0.267
  New size of hamiltonian matrix:     1283584

  Updating Kohn-Sham eigenvalues and eigenvectors using ELSI and the ELPA eigensolver.
  Overlap matrix is nonsingular
  | Lowest eigenvalue of overlap  :  0.31E-04
  | Highest eigenvalue of overlap :  0.11E+02
  Finished singularity check of overlap matrix
  | Time :     0.008 s
  Finished Cholesky decomposition
  | Time :     0.003 s
  Finished transformation to standard eigenproblem
  | Time :     0.004 s
  Starting LAPACK eigensolver
  Finished solving standard eigenproblem
  | Time :     0.010 s
  Finished back-transformation of eigenvectors
  | Time :     0.001 s

  Obtaining occupation numbers and chemical potential using ELSI.
  | Chemical potential (Fermi level):    -4.24170026eV
  Writing Kohn-Sham eigenvalues.
  K-point:       1 at    0.000000    0.000000    0.000000 (in units of recip. lattice)

  State    Occupation    Eigenvalue [Ha]    Eigenvalue [eV]
      1       2.00000       -3153.120252       -85800.76755
      2       2.00000        -515.604266       -14030.30593
      3       2.00000        -466.347998       -12689.97468
      4       2.00000        -466.347998       -12689.97468
      5       2.00000        -445.967674       -12135.39785
      6       2.00000        -445.967674       -12135.39785
      7       2.00000        -445.967668       -12135.39768
      8       2.00000        -119.516566        -3252.21122
      9       2.00000         -99.670914        -2712.18357
     10       2.00000         -99.670914        -2712.18357
     11       2.00000         -99.670867        -2712.18228
     12       2.00000         -78.259170        -2129.54038
     13       2.00000         -78.259170        -2129.54038
     14       2.00000         -78.259143        -2129.53963
     15       2.00000         -78.259143        -2129.53963
     16       2.00000         -78.259133        -2129.53935
     17       2.00000         -59.213201        -1611.27319
     18       2.00000         -59.213201        -1611.27319
     19       2.00000         -52.071695        -1416.94292
     20       2.00000         -52.071695        -1416.94292
     21       2.00000         -52.071693        -1416.94285
     22       2.00000         -52.071693        -1416.94285
     23       2.00000         -52.071677        -1416.94244
     24       2.00000         -52.071677        -1416.94244
     25       2.00000         -25.585543         -696.21805
     26       2.00000         -19.120923         -520.30680
     27       2.00000         -19.120923         -520.30680
     28       2.00000         -19.120653         -520.29943
     29       2.00000         -11.293017         -307.29864
     30       2.00000         -11.293017         -307.29864
     31       2.00000         -11.292799         -307.29271
     32       2.00000         -11.292799         -307.29271
     33       2.00000         -11.292688         -307.28968
     34       2.00000          -7.859427         -213.86589
     35       2.00000          -7.859427         -213.86589
     36       2.00000          -5.633500         -153.29534
     37       2.00000          -5.633500         -153.29534
     38       2.00000          -5.633500         -153.29533
     39       2.00000          -5.633500         -153.29533
     40       2.00000          -5.633301         -153.28992
     41       2.00000          -5.633300         -153.28990
     42       2.00000          -3.759568         -102.30304
     43       2.00000          -2.598771          -70.71616
     44       2.00000          -2.598725          -70.71490
     45       2.00000          -2.598574          -70.71081
     46       2.00000          -2.598574          -70.71081
     47       2.00000          -2.598353          -70.70479
     48       2.00000          -2.598353          -70.70479
     49       2.00000          -2.598262          -70.70229
     50       2.00000          -2.082815          -56.67628
     51       2.00000          -2.082815          -56.67628
     52       2.00000          -2.080417          -56.61102
     53       2.00000          -1.965446          -53.48250
     54       2.00000          -1.965446          -53.48250
     55       2.00000          -1.965167          -53.47493
     56       2.00000          -1.965167          -53.47493
     57       2.00000          -1.965058          -53.47195
     58       2.00000          -1.965058          -53.47195
     59       2.00000          -1.964965          -53.46941
     60       2.00000          -1.964965          -53.46941
     61       2.00000          -1.964890          -53.46738
     62       2.00000          -1.964886          -53.46728
     63       2.00000          -0.760116          -20.68380
     64       2.00000          -0.650812          -17.70949
     65       2.00000          -0.441602          -12.01661
     66       2.00000          -0.389202          -10.59073
     67       2.00000          -0.389202          -10.59073
     68       2.00000          -0.282344           -7.68298
     69       2.00000          -0.282344           -7.68297
     70       2.00000          -0.239699           -6.52254
     71       2.00000          -0.215154           -5.85465
     72       2.00000          -0.215154           -5.85465
     73       1.99365          -0.156589           -4.26100
     74       0.00000          -0.113953           -3.10081
     75       0.00000          -0.113952           -3.10079
     76       0.00000          -0.047881           -1.30291
     77       0.00000          -0.011279           -0.30691
     78       0.00000           0.099228            2.70012
     79       0.00000           0.099234            2.70031
     80       0.00000           0.271798            7.39600
     81       0.00000           0.288126            7.84030
     82       0.00000           0.288127            7.84034
     83       0.00000           0.290693            7.91015
     84       0.00000           0.290697            7.91026
     85       0.00000           0.311596            8.47895
     86       0.00000           0.311609            8.47932
     87       0.00000           0.325750            8.86410
     88       0.00000           0.332332            9.04321
     89       0.00000           0.412519           11.22520
     90       0.00000           0.437980           11.91805
     91       0.00000           0.708234           19.27202
     92       0.00000           0.708243           19.27228
     93       0.00000           0.749077           20.38342

  What follows are estimated values for band gap, HOMO, LUMO, etc.
  | They are estimated on a discrete k-point grid and not necessarily exact.
  | For converged numbers, create a DOS and/or band structure plot on a denser k-grid.

  Highest occupied state (VBM) at     -4.26099881 eV (relative to internal zero)
  | Occupation number:      1.99365170
  | K-point:       1 at    0.000000    0.000000    0.000000 (in units of recip. lattice)

  Lowest unoccupied state (CBM) at    -4.21720964 eV (relative to internal zero)
  | Occupation number:      0.00053320
  | K-point:    1347 at    0.277778    0.833333    0.555556 (in units of recip. lattice)

  ESTIMATED overall HOMO-LUMO gap:      0.04378917 eV between HOMO at k-point 1 and LUMO at k-point 1347
  | This appears to be an indirect band gap.
  | Smallest direct gap :      0.67027072 eV for k_point 1141 at    0.277778    0.833333    0.555556 (in units of recip. lattice)
  However, the gap value is rather small. Since we use a finite k-point grid,
  this material is most likely metallic (in the sense that there are states
  at or near the Fermi level). A DOS and/or band structure plot is required
  for an unambiguous distinction.
  Calculating total energy contributions from superposition of free atom densities.

  Total energy components:
  | Sum of eigenvalues            :      -14841.96036907 Ha     -403870.29033657 eV
  | XC energy correction          :        -536.24929878 Ha      -14592.08585690 eV
  | XC potential correction       :         700.24419443 Ha       19054.61401865 eV
  | Free-atom electrostatic energy:       -9260.08835877 Ha     -251979.82483434 eV
  | Hartree energy correction     :           0.00000000 Ha           0.00000000 eV
  | Entropy correction            :          -0.00000000 Ha          -0.00000003 eV
  | ---------------------------
  | Total energy                  :      -23938.05383218 Ha     -651387.58700917 eV
  | Total energy, T -> 0          :      -23938.05383218 Ha     -651387.58700919 eV  <-- do not rely on this value for anything but (periodic) metals
  | Electronic free energy        :      -23938.05383218 Ha     -651387.58700922 eV

  Derived energy quantities:
  | Kinetic energy                :       26293.35900893 Ha      715478.70178863 eV
  | Electrostatic energy          :      -49695.16354234 Ha    -1352274.20294090 eV
  | Energy correction for multipole
  | error in Hartree potential    :           0.00000000 Ha           0.00000000 eV
  | Sum of eigenvalues per atom                           :     -134623.43011219 eV
  | Total energy (T->0) per atom                          :     -217129.19566973 eV  <-- do not rely on this value for anything but (periodic) metals
  | Electronic free energy per atom                       :     -217129.19566974 eV
  Initialize hartree_potential_storage
  Max. number of atoms included in rho_multipole:            3

  End scf initialization - timings             :  max(cpu_time)    wall_clock(cpu1)
  | Time for scf. initialization               :        4.384 s           4.375 s
  | Boundary condition initialization          :        0.200 s           0.192 s
  | Relaxation initialization                  :        0.004 s           0.001 s
  | Integration                                :        1.960 s           1.953 s
  | Solution of K.-S. eqns.                    :        1.884 s           1.890 s
  | Grid partitioning                          :        0.168 s           0.163 s
  | Preloading free-atom quantities on grid    :        0.016 s           0.015 s
  | Free-atom superposition energy             :        0.012 s           0.008 s
  | Total energy evaluation                    :        0.008 s           0.007 s

  Partial memory accounting:
  | Current value for overall tracked memory usage on task 0  :          38.583 MB
  | Peak value for overall tracked memory usage on task 0     :          90.019 MB after allocating wave
  | Largest tracked array allocation on task 0 so far         :          39.214 MB  when allocating hamiltonian_shell
  Note:  These values currently only include a subset of arrays which are explicitly tracked.
  The "true" memory usage will be greater.
------------------------------------------------------------

------------------------------------------------------------
          Begin self-consistency iteration #    1

  Date     :  20191128, Time     :  124952.391
------------------------------------------------------------
  Evaluating new KS density using the density matrix
  Evaluating density matrix
  Time summed over all CPUs for getting density from density matrix: real work      155.525 s, elapsed      168.728 s
  Integration grid: deviation in total charge (<rho> - N_e) =  -7.996164E-10
  Pulay mixing of updated and previous charge densities.

  Evaluating partitioned Hartree potential by multipole expansion.
  | Analytical far-field extrapolation by fixed multipoles:
  | Hartree multipole sum: apparent total charge =  -0.791414E-04
  Summing up the Hartree potential.
  | Estimated reciprocal-space cutoff momentum G_max:         2.52643141 bohr^-1 .
  | Reciprocal lattice points for long-range Hartree potential:     108
  Time summed over all CPUs for potential: real work        7.408 s, elapsed        7.743 s
  | RMS charge density error from multipole expansion :   0.316685E-03
  | Average real-space part of the electrostatic potential :     -0.00960874 eV

  Integrating Hamiltonian matrix: batch-based integration.
  Time summed over all CPUs for integration: real work       71.933 s, elapsed       80.384 s

  Updating Kohn-Sham eigenvalues and eigenvectors using ELSI and the ELPA eigensolver.
  Finished Cholesky decomposition
  | Time :     0.002 s
  Finished transformation to standard eigenproblem
  | Time :     0.004 s
  Starting LAPACK eigensolver
  Finished solving standard eigenproblem
  | Time :     0.010 s
  Finished back-transformation of eigenvectors
  | Time :     0.001 s

  Obtaining occupation numbers and chemical potential using ELSI.
  | Chemical potential (Fermi level):    -4.31234207eV
  Writing Kohn-Sham eigenvalues.
  K-point:       1 at    0.000000    0.000000    0.000000 (in units of recip. lattice)

  State    Occupation    Eigenvalue [Ha]    Eigenvalue [eV]
      1       2.00000       -3153.137826       -85801.24577
      2       2.00000        -515.621572       -14030.77686
      3       2.00000        -466.345402       -12689.90403
      4       2.00000        -466.345402       -12689.90403
      5       2.00000        -445.985043       -12135.87047
      6       2.00000        -445.985043       -12135.87047
      7       2.00000        -445.985034       -12135.87025
      8       2.00000        -119.532527        -3252.64556
      9       2.00000         -99.686868        -2712.61768
     10       2.00000         -99.686868        -2712.61768
     11       2.00000         -99.686817        -2712.61632
     12       2.00000         -78.275354        -2129.98077
     13       2.00000         -78.275354        -2129.98077
     14       2.00000         -78.275285        -2129.97888
     15       2.00000         -78.275285        -2129.97888
     16       2.00000         -78.275259        -2129.97817
     17       2.00000         -59.210848        -1611.20915
     18       2.00000         -59.210848        -1611.20915
     19       2.00000         -52.069314        -1416.87812
     20       2.00000         -52.069314        -1416.87812
     21       2.00000         -52.069311        -1416.87805
     22       2.00000         -52.069311        -1416.87805
     23       2.00000         -52.069273        -1416.87702
     24       2.00000         -52.069273        -1416.87702
     25       2.00000         -25.599680         -696.60275
     26       2.00000         -19.134896         -520.68701
     27       2.00000         -19.134896         -520.68701
     28       2.00000         -19.134624         -520.67962
     29       2.00000         -11.306942         -307.67755
     30       2.00000         -11.306942         -307.67755
     31       2.00000         -11.306593         -307.66805
     32       2.00000         -11.306593         -307.66805
     33       2.00000         -11.306418         -307.66329
     34       2.00000          -7.857364         -213.80976
     35       2.00000          -7.857364         -213.80976
     36       2.00000          -5.631462         -153.23987
     37       2.00000          -5.631462         -153.23987
     38       2.00000          -5.631461         -153.23986
     39       2.00000          -5.631461         -153.23986
     40       2.00000          -5.631190         -153.23247
     41       2.00000          -5.631189         -153.23244
     42       2.00000          -3.770465         -102.59958
     43       2.00000          -2.612374          -71.08632
     44       2.00000          -2.612229          -71.08235
     45       2.00000          -2.612216          -71.08200
     46       2.00000          -2.612216          -71.08200
     47       2.00000          -2.611861          -71.07235
     48       2.00000          -2.611861          -71.07235
     49       2.00000          -2.611629          -71.06604
     50       2.00000          -2.092556          -56.94134
     51       2.00000          -2.092556          -56.94134
     52       2.00000          -2.090180          -56.87669
     53       2.00000          -1.963408          -53.42704
     54       2.00000          -1.963407          -53.42704
     55       2.00000          -1.963164          -53.42042
     56       2.00000          -1.963164          -53.42041
     57       2.00000          -1.963018          -53.41645
     58       2.00000          -1.963018          -53.41645
     59       2.00000          -1.962906          -53.41340
     60       2.00000          -1.962906          -53.41340
     61       2.00000          -1.962809          -53.41075
     62       2.00000          -1.962808          -53.41072
     63       2.00000          -0.759464          -20.66607
     64       2.00000          -0.649754          -17.68070
     65       2.00000          -0.441936          -12.02569
     66       2.00000          -0.392221          -10.67289
     67       2.00000          -0.392221          -10.67288
     68       2.00000          -0.288210           -7.84259
     69       2.00000          -0.288210           -7.84258
     70       2.00000          -0.244469           -6.65234
     71       2.00000          -0.214477           -5.83623
     72       2.00000          -0.214477           -5.83622
     73       0.00000          -0.155352           -4.22735
     74       0.00000          -0.115878           -3.15321
     75       0.00000          -0.115878           -3.15319
     76       0.00000          -0.047674           -1.29727
     77       0.00000          -0.011917           -0.32427
     78       0.00000           0.098917            2.69166
     79       0.00000           0.098923            2.69184
     80       0.00000           0.271128            7.37777
     81       0.00000           0.287857            7.83299
     82       0.00000           0.287859            7.83303
     83       0.00000           0.289968            7.89043
     84       0.00000           0.289972            7.89055
     85       0.00000           0.310479            8.44855
     86       0.00000           0.310492            8.44892
     87       0.00000           0.324752            8.83694
     88       0.00000           0.332122            9.03749
     89       0.00000           0.412770           11.23203
     90       0.00000           0.438054           11.92006
     91       0.00000           0.708179           19.27052
     92       0.00000           0.708188           19.27078
     93       0.00000           0.749553           20.39637

  What follows are estimated values for band gap, HOMO, LUMO, etc.
  | They are estimated on a discrete k-point grid and not necessarily exact.
  | For converged numbers, create a DOS and/or band structure plot on a denser k-grid.

  Highest occupied state (VBM) at     -4.31813766 eV (relative to internal zero)
  | Occupation number:      1.58756760
  | K-point:      10 at    0.000000    0.000000    0.944444 (in units of recip. lattice)

  Lowest unoccupied state (CBM) at    -4.30359774 eV (relative to internal zero)
  | Occupation number:      0.21622253
  | K-point:    1347 at    0.277778    0.833333    0.555556 (in units of recip. lattice)

  ESTIMATED overall HOMO-LUMO gap:      0.01453992 eV between HOMO at k-point 10 and LUMO at k-point 1347
  | This appears to be an indirect band gap.
  | Smallest direct gap :      0.59632204 eV for k_point 2539 at    0.277778    0.833333    0.555556 (in units of recip. lattice)
  However, this system has fractional occupation numbers. Since we use a finite k-point grid,
  this material is metallic within the approximate finite broadening function (occupation_type)
  applied to determine the occupation numbers.

  Total energy components:
  | Sum of eigenvalues            :      -14842.86123432 Ha     -403894.80412717 eV
  | XC energy correction          :        -536.23045043 Ha      -14591.57296725 eV
  | XC potential correction       :         700.21953469 Ha       19053.94299286 eV
  | Free-atom electrostatic energy:       -9260.08835877 Ha     -251979.82483434 eV
  | Hartree energy correction     :           0.91357271 Ha          24.85957834 eV
  | Entropy correction            :          -0.00000014 Ha          -0.00000374 eV
  | ---------------------------
  | Total energy                  :      -23938.04693611 Ha     -651387.39935757 eV
  | Total energy, T -> 0          :      -23938.04693625 Ha     -651387.39936131 eV  <-- do not rely on this value for anything but (periodic) metals
  | Electronic free energy        :      -23938.04693639 Ha     -651387.39936505 eV

  Derived energy quantities:
  | Kinetic energy                :       26293.06325875 Ha      715470.65401667 eV
  | Electrostatic energy          :      -49694.87974443 Ha    -1352266.48040700 eV
  | Energy correction for multipole
  | error in Hartree potential    :           0.00003716 Ha           0.00101129 eV
  | Sum of eigenvalues per atom                           :     -134631.60137572 eV
  | Total energy (T->0) per atom                          :     -217129.13312044 eV  <-- do not rely on this value for anything but (periodic) metals
  | Electronic free energy per atom                       :     -217129.13312168 eV

  Self-consistency convergence accuracy:
  | Change of charge density      :  0.2692E+00
  | Change of sum of eigenvalues  : -0.2451E+02 eV
  | Change of total energy        :  0.1877E+00 eV

  End self-consistency iteration #     1       :  max(cpu_time)    wall_clock(cpu1)
  | Time for this iteration                    :        5.232 s           5.224 s
  | Charge density update                      :        2.484 s           2.476 s
  | Density mixing & preconditioning           :        0.044 s           0.044 s
[...]
  |   0.163858     68.312     68.313     59.733     -0.000      0.001      0.001
  |   0.260739     57.539     57.540     51.373     -0.000      0.001      0.001
  |   0.399006     42.137     42.138     38.785     -0.000      0.000      0.001
  |   0.600000     26.031     26.032     24.791     -0.000      0.000      0.000
  |   0.902242     13.854     13.854     13.532     -0.000      0.000      0.000
  |   1.380693      6.525      6.525      6.460     -0.000      0.000      0.000
  |   2.197021      2.705      2.705      2.695     -0.000      0.000      0.000
  |   3.754417      0.947      0.947      0.946     -0.000      0.000      0.000
  |   7.305481      0.252      0.252      0.252     -0.000      0.000      0.000
  |  18.530638      0.039      0.039      0.039     -0.000      0.000      0.000
  |  99.337689      0.001      0.001      0.001     -0.000      0.000      0.000
  | --------------------------------------------------------------
  | Partitioned atomic C6 coefficients and polarizabilities (a.u.)
  | --------------------------------------------------------------
  | ATOM   1  Pt  263.447194         32.207830
  | ATOM   2  Se  176.837226         20.904717
  | ATOM   3  Se  176.836953         20.904664
  | --------------------------------------------------------------
  | Computing MBD@rsSCS energy...
  | --------------------------------------------------------------

  Total energy components:
  | Sum of eigenvalues            :      -14847.10417951 Ha     -404010.26054031 eV
  | XC energy correction          :        -536.09142398 Ha      -14587.78986519 eV
  | XC potential correction       :         700.03215267 Ha       19048.84406868 eV
  | Free-atom electrostatic energy:       -9260.37630220 Ha     -251987.66017385 eV
  | Hartree energy correction     :           5.50866834 Ha         149.89849236 eV
  | Entropy correction            :          -0.00001877 Ha          -0.00051078 eV
  | ---------------------------
  | Total energy                  :      -23938.06173779 Ha     -651387.80213162 eV
  | Total energy, T -> 0          :      -23938.06175656 Ha     -651387.80264239 eV  <-- do not rely on this value for anything but (periodic) metals
  | Electronic free energy        :      -23938.06177533 Ha     -651387.80315317 eV

  Derived energy quantities:
  | Kinetic energy                :       26293.04161191 Ha      715470.06497613 eV
  | Electrostatic energy          :      -49694.98127261 Ha    -1352269.24312926 eV
  | Energy correction for multipole
  | error in Hartree potential    :           0.00062038 Ha           0.01688130 eV
  | Sum of eigenvalues per atom                           :     -134670.08684677 eV
  | Total energy (T->0) per atom                          :     -217129.26754746 eV  <-- do not rely on this value for anything but (periodic) metals
  | Electronic free energy per atom                       :     -217129.26771772 eV

  atomic forces [eV/Ang]:
  -----------------------
  atom #    1
   Hellmann-Feynman              :  0.224607E-02 -0.218207E-03 -0.555541E-02
   Ionic forces                  :  0.000000E+00  0.000000E+00  0.000000E+00
   Multipole                     : -0.406565E-05  0.488280E-06  0.596320E-05
   Pulay + GGA                   : -0.211514E-02  0.146213E-03  0.528185E-02
   Van der Waals                 : -0.356592E-06  0.250245E-07  0.162809E-05
   ----------------------------------------------------------------
   Total forces(   1)            :  0.126512E-03 -0.714813E-04 -0.265960E-03
  atom #    2
   Hellmann-Feynman              : -0.188284E-02 -0.124766E-02 -0.315400E+02
   Ionic forces                  :  0.000000E+00  0.000000E+00  0.000000E+00
   Multipole                     : -0.623764E-06  0.187818E-03  0.271461E-01
   Pulay + GGA                   :  0.141824E-02  0.129601E-02  0.315498E+02
   Van der Waals                 :  0.496010E-06 -0.276086E-06 -0.353200E-01
   ----------------------------------------------------------------
   Total forces(   2)            : -0.464731E-03  0.235896E-03  0.159392E-02
  atom #    3
   Hellmann-Feynman              :  0.152480E-02  0.127442E-02  0.315413E+02
   Ionic forces                  :  0.000000E+00  0.000000E+00  0.000000E+00
   Multipole                     :  0.542764E-08 -0.187861E-03 -0.271527E-01
   Pulay + GGA                   : -0.117711E-02 -0.131351E-02 -0.315507E+02
   Van der Waals                 : -0.139418E-06  0.251061E-06  0.353184E-01
   ----------------------------------------------------------------
   Total forces(   3)            :  0.347552E-03 -0.226696E-03 -0.131440E-02


  Analytical stress tensor components [eV]         xx                  yy                  zz                  xy                  xz                  yz
  -----------------------------------------------------------------------------------------------------------------------------------------------------------
    Nuclear Hellmann-Feynman      :    -0.2641985705E+02   -0.2643461027E+02   -0.1779174158E+02   -0.4129192777E-02   -0.4252118372E-02   -0.1245705917E-02
    Multipole Hellmann-Feynman    :    -0.9928601027E+02   -0.9930222815E+02   -0.7618699274E+02   -0.7219979828E-02   -0.7144006756E-02    0.4429979404E-02
    On-site Multipole corrections :    -0.6338526848E+01   -0.6338389286E+01   -0.6338651536E+01   -0.1448721760E-07    0.9242445755E-08   -0.7469668790E-05
    Strain deriv. of the orbitals :     0.1312628790E+03    0.1312928049E+03    0.9953013696E+02    0.1090869356E-01    0.1063356363E-01   -0.2808805961E-02
    vdW correction   :     0.7871515486E+00    0.7871877832E+00    0.7748409855E+00    0.3319921823E-04   -0.1101173458E-04    0.5030704915E-05
  -----------------------------------------------------------------------------------------------------------------------------------------------------------
  Sum of all contributions        :     0.5636400597E-02    0.4764989832E-02   -0.1240791313E-01   -0.4072943100E-03   -0.7735639922E-03    0.3730285619E-03

  +-------------------------------------------------------------------+
  |              Analytical stress tensor - Symmetrized               |
  |                  Cartesian components [eV/A**3]                   |
  +-------------------------------------------------------------------+
  |                x                y                z                |
  |                                                                   |
  |  x         0.00009199      -0.00000665      -0.00001263           |
  |  y        -0.00000665       0.00007777       0.00000609           |
  |  z        -0.00001263       0.00000609      -0.00020251           |
  |                                                                   |
  |  Pressure:       0.00001092   [eV/A**3]                           |
  |                                                                   |
  +-------------------------------------------------------------------+

 * Warning: Stress tensor is anisotropic. Be aware that pressure is an isotropic quantity.

  Timings for VdW correction (Tkatchenko-Scheffler 2009 or later):
  | CPU time:        4.748 s, Wall clock time:        4.742 s.
  Removing unitary transformations (pure translations, rotations) from forces on atoms.
  Atomic forces before filtering:
  | Net force on center of mass :   0.933257E-05 -0.622805E-04  0.135607E-04 eV/A
  Removing unitary transformations (rotations) from forces on lattice.
  Lattice forces before filtering:
  | Net torque relative to origin:   0.170349E-20  0.100355E-20  0.100611E-38 eV
  Atomic forces after filtering:
  | Net force on center of mass :   0.000000E+00  0.000000E+00  0.174225E-18 eV/A
  Lattice forces after filtering:
  | Net torque relative to origin:   0.170349E-20  0.100355E-20  0.100611E-38 eV

  Energy and forces in a compact form:
  | Total energy uncorrected      :         -0.651387802131617E+06 eV
  | Total energy corrected        :         -0.651387802642392E+06 eV  <-- do not rely on this value for anything but (periodic) metals
  | Electronic free energy        :         -0.651387803153167E+06 eV
  Total atomic forces (unitary forces cleaned) [eV/Ang]:
  |   1          0.123400884216375E-03         -0.507211849315941E-04         -0.270480152106569E-03
  |   2         -0.467841625290415E-03          0.256656528845422E-03          0.158939668772192E-02
  |   3          0.344440741074040E-03         -0.205935343913828E-03         -0.131891653561535E-02

  ------------------------------------ 
  Start decomposition of the XC Energy 
  ------------------------------------ 
  X and C from original XC functional choice 
  Hartree-Fock Energy :          0.000000000 Ha              0.000000000 eV
  X Energy            :       -527.925778173 Ha         -14365.591337323 eV
  C Energy            :         -8.165645812 Ha           -222.198527871 eV
  Total XC Energy     :       -536.091423984 Ha         -14587.789865194 eV
  ------------------------------------ 
  LDA X and C from self-consistent density 
  X Energy LDA        :       -504.551896688 Ha         -13729.555660972 eV
  C Energy LDA        :        -14.316495868 Ha           -389.571673756 eV
  ------------------------------------ 
  End decomposition of the XC Energy 
  ------------------------------------ 

------------------------------------------------------------
  Relaxation / MD: End force evaluation.       :  max(cpu_time)    wall_clock(cpu1)
  | Time for this force evaluation             :      111.896 s         111.864 s

------------------------------------------------------------
  Geometry optimization: Attempting to predict improved coordinates.

  +-------------------------------------------------------------------+
  | Generalized derivatives on lattice vectors [eV/A]                 |
  +-------------------------------------------------------------------+
  |lattice_vector       0.00142914       0.00062015      -0.00014769  |
  |lattice_vector      -0.00012444       0.00145582       0.00011397  |
  |lattice_vector      -0.00015618       0.00007531      -0.00250511  |
  +-------------------------------------------------------------------+
  | Forces on lattice vectors cleaned from atomic contributions [eV/A]|
  +-------------------------------------------------------------------+
  |lattice_vector      -0.00115837      -0.00077435      -0.00082176  |
  |lattice_vector      -0.00014633      -0.00130161       0.00085550  |
  |lattice_vector      -0.00005471       0.00004479       0.00326019  |
  +-------------------------------------------------------------------+
  | Projected forces for shape relaxation  [eV/A]                     |
  +-------------------------------------------------------------------+
  |lattice_vector      -0.00115837      -0.00000000       0.00000000  |
  |lattice_vector       0.00052703      -0.00091285       0.00000000  |
  |lattice_vector      -0.00000000       0.00000000       0.00326019  |
  +-------------------------------------------------------------------+
  Removing unitary transformations (pure translations, rotations) from forces on atoms.
  Atomic forces before filtering:
  | Net force on center of mass :   0.000000E+00  0.000000E+00  0.174225E-18 eV/A
  Removing unitary transformations (rotations) from forces on lattice.
  Lattice forces before filtering:
  | Net torque relative to origin:   0.000000E+00  0.000000E+00  0.368783E-18 eV
  Atomic forces after filtering:
  | Net force on center of mass :   0.000000E+00  0.000000E+00  0.174225E-18 eV/A
  Lattice forces after filtering:
  | Net torque relative to origin:   0.000000E+00  0.000000E+00  0.368783E-18 eV
  || Forces on lattice vectors || =   0.326019E-02 eV/A.
  Net remaining forces (excluding translations, rotations) in present geometry:
  Maximum force component is  0.326019E-02 eV/A.
  Present geometry is converged.

------------------------------------------------------------
  Final atomic structure:
                         x [A]             y [A]             z [A]
  lattice_vector         3.77938260        0.00000000       -0.00000000
  lattice_vector        -1.88970706        3.27306864       -0.00000000
  lattice_vector        -0.00000000        0.00000000        4.95305010

            atom        -0.00000567        0.00000040        0.00001294  Pt
            atom         0.00003867        2.18201020        3.66708404  Se
            atom         1.88964254        1.09105804        1.28595312  Se

  Fractional coordinates:
                         L1                L2                L3
       atom_frac        -0.00000144        0.00000012        0.00000261  Pt
       atom_frac         0.33334091        0.66665580        0.74036886  Se
       atom_frac         0.66666053        0.33334407        0.25962853  Se
------------------------------------------------------------

------------------------------------------------------------------------------
  Final output of selected total energy values:

  The following output summarizes some interesting total energy values
  at the end of a run (AFTER all relaxation, molecular dynamics, etc.).

  | Total energy of the DFT / Hartree-Fock s.c.f. calculation      :        -651387.802131617 eV
  | Final zero-broadening corrected energy (caution - metals only) :        -651387.802642392 eV
  | For reference only, the value of 1 Hartree used in FHI-aims is :             27.211384500 eV

  Before relying on these values, please be sure to understand exactly which
  total energy value is referred to by a given number. Different objects may
  all carry the same name 'total energy'. Definitions:

  Total energy of the DFT / Hartree-Fock s.c.f. calculation:
  | Note that this energy does not include ANY quantities calculated after the
  | s.c.f. cycle, in particular not ANY RPA, MP2, etc. many-body perturbation terms.

  Final zero-broadening corrected energy:
  | For metallic systems only, a broadening of the occupation numbers at the Fermi
  | level can be extrapolated back to zero broadening by an electron-gas inspired
  | formula. For all systems that are not real metals, this value can be
  | meaningless and should be avoided.

------------------------------------------------------------------------------
  Methods described in the following list of references were used in this FHI-aims run.
  If you publish the results, please make sure to cite these reference if they apply.
  FHI-aims is an academic code, and for our developers (often, Ph.D. students
  and postdocs), scientific credit in the community is essential.
  Thank you for helping us!

  For any use of FHI-aims, please cite:

    Volker Blum, Ralf Gehrke, Felix Hanke, Paula Havu, Ville Havu,
    Xinguo Ren, Karsten Reuter, and Matthias Scheffler
    'Ab initio molecular simulations with numeric atom-centered orbitals'
    Computer Physics Communications 180, 2175-2196 (2009)
    http://dx.doi.org/10.1016/j.cpc.2009.06.022


  For the analytical stress tensor used in your run, please cite:

    Franz Knuth, Christian Carbogno, Viktor Atalla, Volker Blum, Matthias Scheffler
    'All-electron formalism for total energy strain derivatives and
    stress tensor components for numeric atom-centered orbitals'
    Computer Physics Communications 190, 33-50 (2015).
    http://dx.doi.org/10.1016/j.cpc.2015.01.003


  The scalable eigensolver library ELPA was used in your run.
  ELPA is essential especially for large systems on hundreds or thousands of CPUs.
  For ELPA, please cite:

    Andreas Marek, Volker Blum, Rainer Johanni, Ville Havu, Bruno Lang,
    Thomas Auckenthaler, Alexander Heinecke, Hans-Joachim Bungartz, and Hermann Lederer,
    'The ELPA Library - Scalable Parallel Eigenvalue Solutions
    for Electronic Structure Theory and Computational Science'
    The Journal of Physics: Condensed Matter 26, 213201 (2014).
    http://dx.doi.org/10.1088/0953-8984/26/21/213201


  The ELSI infrastructure was used in your run to solve the Kohn-Sham electronic structure.
  Please check out http://elsi-interchange.org to learn more.
  If scalability is important for your project, please acknowledge ELSI by citing:

    V. W-z. Yu, F. Corsetti, A. Garcia, W. P. Huhn, M. Jacquelin, W. Jia,
    B. Lange, L. Lin, J. Lu, W. Mi, A. Seifitokaldani, A. Vazquez-Mayagoitia,
    C. Yang, H. Yang, and V. Blum
    'ELSI: A unified software interface for Kohn-Sham electronic structure solvers'
    Computer Physics Communications 222, 267-285 (2018).
    http://dx.doi.org/10.1016/j.cpc.2017.09.007


  For the real-space grid partitioning and parallelization used in this calculation, please cite:

    Ville Havu, Volker Blum, Paula Havu, and Matthias Scheffler,
    'Efficient O(N) integration for all-electron electronic structure calculation'
    'using numerically tabulated basis functions'
    Journal of Computational Physics 228, 8367-8379 (2009).
    http://dx.doi.org/10.1016/j.jcp.2009.08.008

  Of course, there are many other important community references, e.g., those cited in the
  above references. Our list is limited to references that describe implementations in the
  FHI-aims code. The reason is purely practical (length of this list) - please credit others as well.

------------------------------------------------------------
          Leaving FHI-aims.
          Date     :  20191128, Time     :  130706.933

          Computational steps:
          | Number of self-consistency cycles          :          123
          | Number of SCF (re)initializations          :            7
          | Number of relaxation steps                 :            6

          Detailed time accounting                     :  max(cpu_time)    wall_clock(cpu1)
          | Total time                                 :     1040.284 s        1039.554 s
          | Preparation time                           :        0.560 s           0.557 s
          | Boundary condition initalization           :        1.044 s           1.013 s
          | Grid partitioning                          :        1.064 s           1.048 s
          | Preloading free-atom quantities on grid    :        0.548 s           0.540 s
          | Free-atom superposition energy             :        0.080 s           0.063 s
          | Total time for integrations                :      130.880 s         130.567 s
          | Total time for solution of K.-S. equations :      206.436 s         206.726 s
          | Total time for EV reorthonormalization     :        1.856 s           1.719 s
          | Total time for density & force components  :      635.804 s         635.024 s
          | Total time for mixing & preconditioning    :        4.916 s           4.792 s
          | Total time for Hartree multipole update    :        0.504 s           0.242 s
          | Total time for Hartree multipole sum       :       22.012 s          21.690 s
          | Total time for total energy evaluation     :        1.044 s           1.000 s
          | Total time for scaled ZORA corrections     :        0.000 s           0.000 s
          | Total time for vdW correction              :       33.492 s          33.447 s

          Partial memory accounting:
          | Residual value for overall tracked memory usage across tasks :           0.000 MB (should be 0.000 MB)
          | Peak values for overall tracked memory usage (after allocating wave_pulay):
          |   Minimum:      127.668 MB (on task 65)
          |   Maximum:      132.852 MB (on task 15)
          |   Average:      130.155 MB
          | Largest tracked array allocation (hamiltonian_shell):
          |   Minimum:       38.054 MB (on task 75)
          |   Maximum:       43.468 MB (on task 69)
          |   Average:       39.584 MB
          Note:  These values currently only include a subset of arrays which are explicitly tracked.
          The "true" memory usage will be greater.

          Have a nice day.
------------------------------------------------------------
