  MPI-parallelism will be employed.
------------------------------------------------------------
          Invoking FHI-aims ...
          Version 171221_1
          Compiled on 2018/11/06 at 11:18:49 on host headnode.

          When using FHI-aims, please cite the following reference:

          Volker Blum, Ralf Gehrke, Felix Hanke, Paula Havu,
          Ville Havu, Xinguo Ren, Karsten Reuter, and Matthias Scheffler,
          'Ab Initio Molecular Simulations with Numeric Atom-Centered Orbitals',
          Computer Physics Communications 180, 2175-2196 (2009)

          For any questions about FHI-aims, please visit the aimsclub website
          with its forums and wiki. Contributions to both the forums and the
          wiki are warmly encouraged - they are for you, and everyone is welcome there.

------------------------------------------------------------



  Date     :  20191127, Time     :  202028.743
  Time zero on CPU 1             :   0.476000000000000E+00  s.
  Internal wall clock time zero  :           344118028.743  s.

  FHI-aims created a unique identifier for this run for later identification
  aims_uuid : 86235006-DA7C-4927-AAE2-6445131754D2

  Using       80 parallel tasks.
  Task        0 on host t030 reporting.
  Task        1 on host t030 reporting.
  Task        2 on host t030 reporting.
  Task        3 on host t030 reporting.
  Task        4 on host t030 reporting.
  Task        5 on host t030 reporting.
  Task        6 on host t030 reporting.
  Task        7 on host t030 reporting.
  Task        8 on host t030 reporting.
  Task        9 on host t030 reporting.
  Task       10 on host t030 reporting.
  Task       11 on host t030 reporting.
  Task       12 on host t030 reporting.
  Task       13 on host t030 reporting.
  Task       14 on host t030 reporting.
  Task       15 on host t030 reporting.
  Task       16 on host t030 reporting.
  Task       17 on host t030 reporting.
  Task       18 on host t030 reporting.
  Task       19 on host t030 reporting.
  Task       20 on host t024 reporting.
  Task       21 on host t024 reporting.
  Task       22 on host t024 reporting.
  Task       23 on host t024 reporting.
  Task       24 on host t024 reporting.
  Task       25 on host t024 reporting.
  Task       26 on host t024 reporting.
  Task       27 on host t024 reporting.
  Task       28 on host t024 reporting.
  Task       29 on host t024 reporting.
  Task       30 on host t024 reporting.
  Task       31 on host t024 reporting.
  Task       32 on host t024 reporting.
  Task       33 on host t024 reporting.
  Task       34 on host t024 reporting.
  Task       35 on host t024 reporting.
  Task       36 on host t024 reporting.
  Task       37 on host t024 reporting.
  Task       38 on host t024 reporting.
  Task       39 on host t024 reporting.
  Task       40 on host t019 reporting.
  Task       41 on host t019 reporting.
  Task       42 on host t019 reporting.
  Task       43 on host t019 reporting.
  Task       44 on host t019 reporting.
  Task       45 on host t019 reporting.
  Task       46 on host t019 reporting.
  Task       47 on host t019 reporting.
  Task       48 on host t019 reporting.
  Task       49 on host t019 reporting.
  Task       50 on host t019 reporting.
  Task       51 on host t019 reporting.
  Task       52 on host t019 reporting.
  Task       53 on host t019 reporting.
  Task       54 on host t019 reporting.
  Task       55 on host t019 reporting.
  Task       56 on host t019 reporting.
  Task       57 on host t019 reporting.
  Task       58 on host t019 reporting.
  Task       59 on host t019 reporting.
  Task       60 on host t018 reporting.
  Task       61 on host t018 reporting.
  Task       62 on host t018 reporting.
  Task       63 on host t018 reporting.
  Task       64 on host t018 reporting.
  Task       65 on host t018 reporting.
  Task       66 on host t018 reporting.
  Task       67 on host t018 reporting.
  Task       68 on host t018 reporting.
  Task       69 on host t018 reporting.
  Task       70 on host t018 reporting.
  Task       71 on host t018 reporting.
  Task       72 on host t018 reporting.
  Task       73 on host t018 reporting.
  Task       74 on host t018 reporting.
  Task       75 on host t018 reporting.
  Task       76 on host t018 reporting.
  Task       77 on host t018 reporting.
  Task       78 on host t018 reporting.
  Task       79 on host t018 reporting.

  Performing system and environment tests:
  | Environment variable OMP_NUM_THREADS correctly set to 1.
  | Stacksize not measured: no C compiler
  | Checking for scalapack...
  | Testing pdtran()...
  | All pdtran() tests passed.

  Obtaining array dimensions for all initial allocations:
  
  -----------------------------------------------------------------------
  Parsing control.in (first pass over file, find array dimensions only).
  The contents of control.in will be repeated verbatim below
  unless switched off by setting 'verbatim_writeout .false.' .
  in the first line of control.in .
  -----------------------------------------------------------------------
  
  #===============================================================================
  # FHI-aims file: ./control.in
  # Created using the Atomic Simulation Environment (ASE)
  # Wed Nov 27 20:14:04 2019
  #
  # List of parameters used to initialize the calculator:
  #     spin : none
  #     relativistic : ('atomic_zora', 'scalar')
  #     k_grid : [18, 18, 1]
  #     species_dir : /chemsoft/FHI-aims/stable/species_defaults/tight
  #     adjust_scf : once 2
  #     xc : pbe
  #===============================================================================
  spin                               none
  relativistic                       atomic_zora scalar
  k_grid                             18 18 1
  adjust_scf                         once 2
  ### geometry optimisation section
  relax_geometry    bfgs    1E-2
  relax_unit_cell       fixed_angles
  xc                                 pbe
  many_body_dispersion
  #===============================================================================
  
  ################################################################################
  #
  #  FHI-aims code project
  # Volker Blum, Fritz Haber Institute Berlin, 2009
  #
  #  Suggested "tight" defaults for Hf atom (to be pasted into control.in file)
  #
  ################################################################################
    species          Hf
  #     global species definitions
      nucleus        72
      mass           178.49
  #
      l_hartree      6
  #
      cut_pot        4.0  2.0  1.0
      basis_dep_cutoff    1e-4
  #
      radial_base    71  7.0
      radial_multiplier  2
      angular_grids specified
        division   0.3723   50
        division   0.7995  110
        division   1.2133  194
        division   1.4586  302
        division   1.6594  434
  #      division   1.9508  590
  #      division   2.1708  770
  #      division   2.4268  974
  #      division   3.3577 1202
  #      outer_grid  974
        outer_grid  434
  ################################################################################
  #
  #  Definition of "minimal" basis
  #
  ################################################################################
  #     valence basis states
      valence      6  s   2.
      valence      5  p   6.
      valence      5  d   2.
      valence      4  f  14.
  #     ion occupancy
      ion_occ      6  s   1.
      ion_occ      5  p   6.
      ion_occ      5  d   1.
      ion_occ      4  f  14.
  ################################################################################
  #
  #  Suggested additional basis functions. For production calculations,
  #  uncomment them one after another (the most important basis functions are
  #  listed first).
  #
  #  Constructed for dimers: 1.975, 2.49, 3.25, 4.50 AA
  #
  ################################################################################
  #
  #  "First tier" - improvements: -322.32 meV to -24.16 meV
       hydro 4 f 6
       hydro 3 d 6
       ionic 6 p auto
       hydro 5 g 10.8
       hydro 4 s 4.7
  #  "Second tier" - improvements: -29.31 meV to -1.14 meV
       hydro 5 f 9.6
       ionic 5 d auto
       hydro 6 h 15.2
       hydro 3 p 2.3
       hydro 4 d 6.6
       hydro 3 s 2.1
  #  "Third tier" - max. impr. -1.11 meV, min. impr. - meV
  #     hydro 5 f 6.6
  #     hydro 5 g 11.2
  #     hydro 6 h 17.6
  #     hydro 3 p 3
  #     hydro 5 g 38.8
  #     hydro 4 d 4.9
  #     hydro 1 s 0.5
  #  "Fourth tier" - max. impr. -0.31 meV, min. impr. -0.11 meV
  #     hydro 5 p 12
  #     hydro 5 f 14
  #     hydro 5 f 20.8
  #     hydro 4 s 12.4
  #     hydro 5 d 19.2
  #     hydro 6 h 22
  #  Further functions: -0.14 meV and below.
  #     hydro 5 p 8.6
  #     hydro 4 s 6
  #     hydro 6 d 9.8
  #     hydro 5 f 19.6
  ################################################################################
  #
  #  FHI-aims code project
  # Volker Blum, Fritz Haber Institute Berlin, 2009
  #
  #  Suggested "tight" defaults for S atom (to be pasted into control.in file)
  #
  #  Revised Jan 04, 2011, following tests (SiC) done by Lydia Nemec:
  #     d and g functions of tier 2 now enabled by default.
  #
  ################################################################################
    species        S
  #     global species definitions
      nucleus             16
      mass                32.065
  #
      l_hartree           6
  #
      cut_pot             4.0          2.0  1.0
      basis_dep_cutoff    1e-4
  #
      radial_base         44 7.0
      radial_multiplier   2
      angular_grids       specified
        division   0.4665  110
        division   0.5810  194
        division   0.7139  302
        division   0.8274  434
  #      division   0.9105  590
  #      division   1.0975  770
  #      division   1.2028  974
  #      outer_grid  974
        outer_grid  434
  ################################################################################
  #
  #  Definition of "minimal" basis
  #
  ################################################################################
  #     valence basis states
      valence      3  s   2.
      valence      3  p   4.
  #     ion occupancy
      ion_occ      3  s   1.
      ion_occ      3  p   3.
  ################################################################################
  #
  #  Suggested additional basis functions. For production calculations,
  #  uncomment them one after another (the most important basis functions are
  #  listed first).
  #
  #  Constructed for dimers: 1.6 A, 1.9 A, 2.5 A, 3.25 A, 4.0 A
  #
  ################################################################################
  #  "First tier" - improvements: -652.81 meV to -45.53 meV
       ionic 3 d auto
       hydro 2 p 1.8
       hydro 4 f 7
       ionic 3 s auto
  #  "Second tier" - improvements: -30.20 meV to -1.74 meV
       hydro 4 d 6.2
       hydro 5 g 10.8
       hydro 4 p 4.9
       hydro 5 f 10
       hydro 1 s 0.8
  #  "Third tier" - improvements: -1.04 meV to -0.20 meV
  #     hydro 3 d 3.9
  #     hydro 3 d 2.7
  #     hydro 5 g 12
  #     hydro 4 p 10.4
  #     hydro 5 f 12.4
  #     hydro 2 s 1.9
  #  "Fourth tier" - improvements: -0.35 meV to -0.06 meV
  #     hydro 4 d 10.4
  #     hydro 4 p 7.2
  #     hydro 4 d 10
  #     hydro 5 g 19.2
  #     hydro 4 s 12
  #
  ################################################################################
  #
  # For methods that use the localized form of the "resolution of identity" for
  # the two-electron Coulomb operator (RI_method LVL), particularly Hartree-Fock and
  # hybrid density functional calculations, the highest accuracy can be obtained by
  # uncommenting the line beginning with "for_aux"  below, thus adding an extra g radial
  # function to the construction of the product basis set for the expansion.
  # See Ref. New J. Phys. 17, 093020 (2015) for more information, particularly Figs. 1 and 6.
  #
  ################################################################################
  #
  # for_aux hydro 5 g 6.0
  
  -----------------------------------------------------------------------
  Completed first pass over input file control.in .
  -----------------------------------------------------------------------
  
  
  -----------------------------------------------------------------------
  Parsing geometry.in (first pass over file, find array dimensions only).
  The contents of geometry.in will be repeated verbatim below
  unless switched off by setting 'verbatim_writeout .false.' .
  in the first line of geometry.in .
  -----------------------------------------------------------------------
  
  #=======================================================
  # FHI-aims file: ./geometry.in
  # Created using the Atomic Simulation Environment (ASE)
  # Wed Nov 27 20:14:04 2019
  #=======================================================
  lattice_vector 3.6433658599999998 0.0000000000000000 0.0000000000000000
  lattice_vector -1.8216829299999999 3.1552473900000000 0.0000000000000000
  lattice_vector 0.0000000000000000 0.0000000000000000 100.0000000000000000
  atom 0.0000000000000000 0.0000000000000000 -13.1689155400000004 Hf
  atom -1.8216829299999999 1.0517491299999999 -5.1395051000000000 S
  atom 1.8216829299999999 -1.0517491299999999 -14.6138682099999997 S
  atom 0.0000000000000000 0.0000000000000000 -6.5844577700000002 Hf
  atom -1.8216829299999999 1.0517491299999999 -11.7239628699999994 S
  atom 1.8216829299999999 -1.0517491299999999 -8.0294104399999995 S
  
  -----------------------------------------------------------------------
  Completed first pass over input file geometry.in .
  -----------------------------------------------------------------------
  

  Basic array size parameters:
  | Number of species                 :        2
  | Number of atoms                   :        6
  | Number of lattice vectors         :        3
  | Max. basis fn. angular momentum   :        5
  | Max. atomic/ionic basis occupied n:        6
  | Max. number of basis fn. types    :        3
  | Max. radial fns per species/type  :       14
  | Max. logarithmic grid size        :     1480
  | Max. radial integration grid size :      143
  | Max. angular integration grid size:      434
  | Max. angular grid division number :        8
  | Radial grid for Hartree potential :     1480
  | Number of spin channels           :        1

------------------------------------------------------------
          Reading file control.in.
------------------------------------------------------------
  Spin treatment: No spin polarisation.
  Scalar relativistic treatment of kinetic energy: on-site free-atom approximation to ZORA.
  Found k-point grid:        18        18         1
  S.C.F. convergence parameters will be adjusted in iteration number     2 of the first full s.c.f. cycle only.
  Geometry relaxation: Modified BFGS - TRM (trust radius method, i.e., trusted quadratic extrapolation).
  Convergence accuracy for geometry relaxation: Maximum force <   0.100000E-01 eV/A.
  XC: Using PBE gradient-corrected functionals.
  Using the default MBD implementation with analytical forces
 
  Reading configuration options for species Hf                  .
  | Found nuclear charge :  72.0000
  | Found atomic mass :    178.490000000000      amu
  | Found l_max for Hartree potential  :   6
  | Found cutoff potl. onset [A], width [A], scale factor :    4.00000    2.00000    1.00000
  | Threshold for basis-dependent cutoff potential is   0.100000E-03
  | Found data for basic radial integration grid :    71 points, outermost radius =    7.000 A
  | Found multiplier for basic radial grid :   2
  | Found angular grid specification: user-specified.
  | Specified grid contains     6 separate shells.
  | Check grid settings after all constraints further below.
  | Found free-atom valence shell :  6 s   2.000
  | Found free-atom valence shell :  5 p   6.000
  | Found free-atom valence shell :  5 d   2.000
  | Found free-atom valence shell :  4 f  14.000
  | Found free-ion valence shell :  6 s   1.000
  | Found free-ion valence shell :  5 p   6.000
  | Found free-ion valence shell :  5 d   1.000
  | Found free-ion valence shell :  4 f  14.000
  | Found hydrogenic basis function :  4 f   6.000
  | Found hydrogenic basis function :  3 d   6.000
  | Found ionic basis function :  6 p , default cutoff radius.
  | Found hydrogenic basis function :  5 g  10.800
  | Found hydrogenic basis function :  4 s   4.700
  | Found hydrogenic basis function :  5 f   9.600
  | Found ionic basis function :  5 d , default cutoff radius.
  | Found hydrogenic basis function :  6 h  15.200
  | Found hydrogenic basis function :  3 p   2.300
  | Found hydrogenic basis function :  4 d   6.600
  | Found hydrogenic basis function :  3 s   2.100
  Species Hf                  : Missing cutoff potential type.
  Defaulting to exp(1/x)/(1-x)^2 type cutoff potential.
  Species Hf: No 'logarithmic' tag. Using default grid for free atom:
  | Default logarithmic grid data [bohr] : 0.1000E-03 0.1000E+03 0.1012E+01
  | Will include ionic basis functions of  2.0-fold positive Hf                   ion.
  Species Hf: On-site basis accuracy parameter (for Gram-Schmidt orthonormalisation) not specified.
  Using default value basis_acc =  0.1000000E-03.
  Species Hf                  : Using default innermost maximum threshold i_radial=  2 for radial functions.
  Species Hf                  : Default cutoff onset for free atom density etc. : 0.40000000E+01 AA.
  Species Hf                  : Basic radial grid will be enhanced according to radial_multiplier =   2, to contain   143 grid points.
 
  Reading configuration options for species S                   .
  | Found nuclear charge :  16.0000
  | Found atomic mass :    32.0650000000000      amu
  | Found l_max for Hartree potential  :   6
  | Found cutoff potl. onset [A], width [A], scale factor :    4.00000    2.00000    1.00000
  | Threshold for basis-dependent cutoff potential is   0.100000E-03
  | Found data for basic radial integration grid :    44 points, outermost radius =    7.000 A
  | Found multiplier for basic radial grid :   2
  | Found angular grid specification: user-specified.
  | Specified grid contains     5 separate shells.
  | Check grid settings after all constraints further below.
  | Found free-atom valence shell :  3 s   2.000
  | Found free-atom valence shell :  3 p   4.000
  | Found free-ion valence shell :  3 s   1.000
  | Found free-ion valence shell :  3 p   3.000
  | Found ionic basis function :  3 d , default cutoff radius.
  | Found hydrogenic basis function :  2 p   1.800
  | Found hydrogenic basis function :  4 f   7.000
  | Found ionic basis function :  3 s , default cutoff radius.
  | Found hydrogenic basis function :  4 d   6.200
  | Found hydrogenic basis function :  5 g  10.800
  | Found hydrogenic basis function :  4 p   4.900
  | Found hydrogenic basis function :  5 f  10.000
  | Found hydrogenic basis function :  1 s   0.800
  Species S                   : Missing cutoff potential type.
  Defaulting to exp(1/x)/(1-x)^2 type cutoff potential.
  Species S : No 'logarithmic' tag. Using default grid for free atom:
  | Default logarithmic grid data [bohr] : 0.1000E-03 0.1000E+03 0.1012E+01
  | Will include ionic basis functions of  2.0-fold positive S                    ion.
  Species S : On-site basis accuracy parameter (for Gram-Schmidt orthonormalisation) not specified.
  Using default value basis_acc =  0.1000000E-03.
  Species S                   : Using default innermost maximum threshold i_radial=  2 for radial functions.
  Species S                   : Default cutoff onset for free atom density etc. : 0.40000000E+01 AA.
  Species S                   : Basic radial grid will be enhanced according to radial_multiplier =   2, to contain    89 grid points.
  | MBD: Using the same k-grid sampling as DFT
 
  Finished reading input file 'control.in'. Consistency checks are next.
 
  MPI_IN_PLACE appears to work with this MPI implementation.
  | Keeping use_mpi_in_place .true. (see manual).
  Target number of points in a grid batch is not set. Defaulting to  100
  Method for grid partitioning is not set. Defaulting to parallel hash+maxmin partitioning.
  Batch size limit is not set. Defaulting to    200
  By default, will store active basis functions for each batch.
  If in need of memory, prune_basis_once .false. can be used to disable this option.
  communication_type for Hartree potential was not specified.
  Defaulting to calc_hartree .
  Defaulting to Pulay charge density mixer.
  Pulay mixer: Number of relevant iterations not set.
  Defaulting to    8 iterations.
  Pulay mixer: Number of initial linear mixing iterations not set.
  Defaulting to    0 iterations.
  Work space size for distributed Hartree potential not set.
  Defaulting to   0.200000E+03 MB.
  Mixing parameter for charge density mixing has not been set.
  Using default: charge_mix_param =     0.0500.
  The mixing parameter will be adjusted in iteration number     2 of the first full s.c.f. cycle only.
  Algorithm-dependent basis array size parameters:
  | n_max_pulay                         :        8
 * Notice: The s.c.f. convergence criterion sc_accuracy_rho was not provided.
 * We used to stop in this case, and ask the user to provide reasonable
 * scf convergence criteria. However, this led some users to employ criteria
 * that led to extremely long run times, e.g., for simple relaxation.
 * We now preset a default value for sc_accuracy_rho if it is not set.
 * You may still wish to check if this setting is too tight or too loose for your needs.
 * Based on n_atoms, FHI-aims chose sc_accuracy_rho =  0.100000E-05 .
  Maximum number of self-consistency iterations not provided.
  Presetting  1000 iterations.
  Presetting      1001 iterations before the initial mixing cycle
  is restarted anyway using the sc_init_iter criterion / keyword.
  Presetting a factor      1.000 between actual scf density residual
  and density convergence criterion sc_accuracy_rho below which sc_init_iter
  takes no effect.
 * No s.c.f. convergence criteria (sc_accuracy_*) were provided in control.in.
 * The run will proceed with a reasonable default guess, but please check whether.
 * the s.c.f. cycles seem to take too much or too little time.
  No maximum number of relaxation steps, defaulting to     1000
  Default initial Hessian is Lindh matrix (thres = 15.00) plus  0.200000E+01 eV/A^2 times unity.
  No maximum energy tolerance for TRM/BFGS moves, defaulting to   0.200000E-03
  No harmonic length scale. Defaulting to   0.250000E-01 A.
  No trust radius initializer. Defaulting to   0.200000E+00 A.
  Unit cell relaxation: Restricted relaxation with fixed angles between lattice vectors.
  Unit cell relaxation: Analytical stress will be used.
  Analytical stress will be computed.
  Analytical stress calculation: Only the upper triangle is calculated.
                                 Final output is symmetrized.
  Analytical stress calculation: scf convergence accuracy of stress not set.
                                 Analytical stress self-consistency will not be checked explicitly.
                                 Be sure to set other criteria like sc_accuracy_rho tight enough.
  Force calculation: scf convergence accuracy of forces not set.
  Defaulting to 'sc_accuracy_forces not_checked'.
  Handling of forces: Unphysical translation and rotation will be removed from forces.
  No accuracy limit for integral partition fn. given. Defaulting to  0.1000E-14.
  No threshold value for u(r) in integrations given. Defaulting to  0.1000E-05.
  No occupation type (smearing scheme) given. Defaulting to Gaussian broadening, width =  0.1000E-01 eV.
  The width will be adjusted in iteration number     2 of the first full s.c.f. cycle only.
  S.C.F. convergence parameters will be adjusted in iteration number     2 of the first full s.c.f. cycle only.
  No accuracy for occupation numbers given. Defaulting to  0.1000E-12.
  No threshold value for occupation numbers given. Defaulting to  0.0000E+00.
  No accuracy for fermi level given. Defaulting to  0.1000E-19.
  Maximum # of iterations to find E_F not set. Defaulting to  200.
  Preferred method for the eigenvalue solver ('KS_method') not specified in 'control.in'.
  Defaulting to serial version, 'lapack_fast', since more k-points than CPUs available.
  Will not use alltoall communication since running on < 1024 CPUs.
  Threshold for basis singularities not set.
  Default threshold for basis singularities:  0.1000E-04
  partition_type (choice of integration weights) for integrals was not specified.
  | Using a version of the partition function of Stratmann and coworkers ('stratmann_smoother').
  | At each grid point, the set of atoms used to build the partition table is smoothly restricted to
  | only those atoms whose free-atom density would be non-zero at that grid point.
  Partitioning for Hartree potential was not defined. Using partition_type for integrals.
  | Adjusted default value of keyword multip_moments_threshold to:       0.10000000E-11
  | This value may affect high angular momentum components of the Hartree potential in periodic systems.
  Angular momentum expansion for Kerker preconditioner not set explicitly.
  | Using default value of   0
  No explicit requirement for turning off preconditioner.
  | By default, it will be turned off when the charge convergence reaches
  | sc_accuracy_rho  =   0.100000E-05
  No special mixing parameter while Kerker preconditioner is on.
  Using default: charge_mix_param =     0.0500.
  No q(lm)/r^(l+1) cutoff set for long-range Hartree potential.
  | Using default value of  0.100000E-09 .
  | Verify using the multipole_threshold keyword.
  Defaulting to new monopole extrapolation.
  Density update method: automatic selection selected.
  Using density matrix based charge density update.
  Using density matrix based charge density update.
  Using packed matrix style: index .
  Geometry relaxation: A file "geometry.in.next_step" is written out by default after each step.
  | This file contains the geometry of the current relaxation step as well as
  | the current Hessian matrix needed to restart the relaxation algorithm.
  | If you do not want part or all of this information, use the keywords
  | "write_restart_geometry" or "hessian_to_restart_geometry" to switch the output off.
  Defaulting to use time-reversal symmetry for k-point grid.
------------------------------------------------------------


------------------------------------------------------------
          Reading geometry description geometry.in.
------------------------------------------------------------
  Input structure read successfully.
  The structure contains        6 atoms,  and a total of        208.000 electrons.

  Input geometry:
  | Unit cell:
  |        3.64336586        0.00000000        0.00000000
  |       -1.82168293        3.15524739        0.00000000
  |        0.00000000        0.00000000      100.00000000
  | Atomic structure:
  |       Atom                x [A]            y [A]            z [A]
  |    1: Species Hf            0.00000000        0.00000000      -13.16891554
  |    2: Species S            -1.82168293        1.05174913       -5.13950510
  |    3: Species S             1.82168293       -1.05174913      -14.61386821
  |    4: Species Hf            0.00000000        0.00000000       -6.58445777
  |    5: Species S            -1.82168293        1.05174913      -11.72396287
  |    6: Species S             1.82168293       -1.05174913       -8.02941044

  Lattice parameters for 3D lattice (in Angstroms) :     3.643366    3.643366  100.000000
  Angle(s) between unit vectors (in degrees)      :    90.000000   90.000000  120.000000

  |

  | The smallest distance between any two atoms is         2.55197828 AA.
  |
  | The first atom of this pair is atom number                      1 .
  | The second atom of this pair is atom number                     5 .
  | Wigner-Seitz cell of the first atom image           0     1     0 .
  | (The Wigner-Seitz cell of the second atom is 0 0 0  by definition.)

  Quantities derived from the lattice vectors:
  | Reciprocal lattice vector 1:  1.724555  0.995672  0.000000
  | Reciprocal lattice vector 2: -0.000000  1.991345  0.000000
  | Reciprocal lattice vector 3:  0.000000  0.000000  0.062832
  | Unit cell volume                               :   0.114957E+04  A^3

  Range separation radius for Ewald summation (hartree_convergence_parameter):      5.00000000 bohr.

  Fractional coordinates:
                         L1                L2                L3
       atom_frac         0.00000000        0.00000000       -0.13168916  Hf
       atom_frac        -0.33333333        0.33333333       -0.05139505  S
       atom_frac         0.33333333       -0.33333333       -0.14613868  S
       atom_frac         0.00000000        0.00000000       -0.06584458  Hf
       atom_frac        -0.33333333        0.33333333       -0.11723963  S
       atom_frac         0.33333333       -0.33333333       -0.08029410  S

  Number of empty states per atom not set in control.in - providing a guess from actual geometry.
  | Total number of empty states used during s.c.f. cycle:       30
  If you use a very high smearing, use empty_states (per atom!) in control.in to increase this value.

  Structure-dependent array size parameters: 
  | Maximum number of distinct radial functions  :       39
  | Maximum number of basis functions            :      394
  | Number of Kohn-Sham states (occupied + empty):      134
------------------------------------------------------------

------------------------------------------------------------
          Preparing all fixed parts of the calculation.
------------------------------------------------------------
  Determining machine precision:
    2.225073858507201E-308
  Setting up grids for atomic and cluster calculations.

  Creating wave function, potential, and density for free atoms.

  Species: Hf

  List of occupied orbitals and eigenvalues:
    n    l              occ      energy [Ha]    energy [eV]
    1    0           2.0000     -2584.841454    -70337.1147
    2    0           2.0000      -416.409620    -11331.0823
    3    0           2.0000       -93.828152     -2553.1939
    4    0           2.0000       -18.830205      -512.3959
    5    0           2.0000        -2.452388       -66.7329
    6    0           2.0000        -0.182075        -4.9545
    2    1           6.0000      -365.115746     -9935.3049
    3    1           6.0000       -78.772537     -2143.5098
    4    1           6.0000       -13.918099      -378.7307
    5    1           6.0000        -1.297904       -35.3178
    3    2          10.0000       -61.028236     -1660.6628
    4    2          10.0000        -7.585880      -206.4223
    5    2           2.0000        -0.092422        -2.5149
    4    3          14.0000        -0.614647       -16.7254


  Species: S

  List of occupied orbitals and eigenvalues:
    n    l              occ      energy [Ha]    energy [eV]
    1    0           2.0000       -88.680731     -2413.1255
    2    0           2.0000        -7.781719      -211.7513
    3    0           2.0000        -0.633662       -17.2428
    2    1           6.0000        -5.751976      -156.5192
    3    1           4.0000        -0.257086        -6.9957

  Creating fixed part of basis set: Ionic, confined, hydrogenic.
 
  Hf                   ion:

  List of free ionic orbitals and eigenvalues:
    n    l      energy [Ha]    energy [eV]
    1    0     -2585.552822    -70356.4720
    2    0      -417.082963    -11349.4049
    3    0       -94.492979     -2571.2848
    4    0       -19.494122      -530.4620
    5    0        -3.115173       -84.7682
    6    0        -0.684769       -18.6335
    2    1      -365.788271     -9953.6053
    3    1       -79.437124     -2161.5941
    4    1       -14.582223      -396.8025
    5    1        -1.952578       -53.1323
    3    2       -61.692915     -1678.7496
    4    2        -8.250294      -224.5019
    5    2        -0.680962       -18.5299
    4    3        -1.278337       -34.7853


  List of ionic basis orbitals and eigenvalues:
    n    l      energy [Ha]    energy [eV]    outer radius [A]
    6    1        -0.471793       -12.8381       5.450410
    5    2        -0.680950       -18.5296       5.127232

 
  Hf                   hydrogenic:
 
  List of hydrogenic basis orbitals: 
    n    l      effective z      eigenvalue [eV]  inner max. [A]     outer max. [A]     outer radius [A]   
    4    3         6.000000       -30.6116           1.403147           1.403147           5.384184
    3    2         6.000000       -54.4226           0.789894           0.789894           4.165104
    5    4        10.800000       -63.4785           1.226596           1.226596           4.764611
    4    0         4.700000       -18.5431           0.082292           2.748600           5.517450
    5    3         9.600000       -50.1555           0.673827           1.813833           5.384184
    6    5        15.200000       -87.3182           1.256956           1.256956           4.593035
    3    1         2.300000        -7.5446           0.682115           2.649621           5.517450
    4    2         6.600000       -37.0405           0.547383           1.706283           5.384184
    3    0         2.100000        -5.6806           0.186672           2.994169           5.517450
 
 
  S                    ion:

  List of free ionic orbitals and eigenvalues:
    n    l      energy [Ha]    energy [eV]
    1    0       -89.703778     -2440.9640
    2    0        -8.775428      -238.7916
    3    0        -1.470343       -40.0101
    2    1        -6.747660      -183.6132
    3    1        -1.048627       -28.5346


  List of ionic basis orbitals and eigenvalues:
    n    l      energy [Ha]    energy [eV]    outer radius [A]
    3    2        -0.495605       -13.4861       5.386362
    3    0        -1.470336       -40.0099       3.967934

 
  S                    hydrogenic:
 
  List of hydrogenic basis orbitals: 
    n    l      effective z      eigenvalue [eV]  inner max. [A]     outer max. [A]     outer radius [A]   
    2    1         1.800000       -11.0118           1.168531           1.168531           5.452614
    4    3         7.000000       -41.6672           1.212182           1.212182           5.066981
    4    2         6.200000       -32.6848           0.582121           1.814567           5.386362
    5    4        10.800000       -63.4785           1.227092           1.227092           4.766538
    4    1         4.900000       -20.2928           0.304525           2.524192           5.452614
    5    3        10.000000       -54.4226           0.641929           1.727969           5.320915
    1    0         0.800000        -8.7059           0.657818           0.657818           5.386362
 

  Adding cutoff potential to free-atom effective potential.
  Creating atomic-like basis functions for current effective potential.

  Species Hf                  :

  List of atomic basis orbitals and eigenvalues:
    n    l      energy [Ha]    energy [eV]    outer radius [A]
    1    0     -2584.841454    -70337.1147       0.135843
    2    0      -416.409620    -11331.0823       0.352500
    3    0       -93.828152     -2553.1939       0.752197
    4    0       -18.830205      -512.3959       1.605110
    5    0        -2.452388       -66.7329       4.165104
    6    0        -0.182075        -4.9545       5.450410
    2    1      -365.115746     -9935.3049       0.370165
    3    1       -78.772537     -2143.5098       0.799610
    4    1       -13.918099      -378.7307       1.813833
    5    1        -1.297904       -35.3178       4.942597
    3    2       -61.028236     -1660.6628       0.860465
    4    2        -7.585880      -206.4223       2.316232
    5    2        -0.092422        -2.5149       5.450410
    4    3        -0.614647       -16.7254       5.003391


  Species S                   :

  List of atomic basis orbitals and eigenvalues:
    n    l      energy [Ha]    energy [eV]    outer radius [A]
    1    0       -88.680731     -2413.1255       0.682391
    2    0        -7.781719      -211.7513       2.289014
    3    0        -0.633662       -17.2428       5.256262
    2    1        -5.751976      -156.5192       2.555240
    3    1        -0.257086        -6.9957       5.386362

  Assembling full basis from fixed parts.
  | Species Hf :   atomic orbital   1 s accepted.
  | Species Hf :   atomic orbital   2 s accepted.
  | Species Hf :   atomic orbital   3 s accepted.
  | Species Hf :   atomic orbital   4 s accepted.
  | Species Hf :   atomic orbital   5 s accepted.
  | Species Hf :   atomic orbital   6 s accepted.
  | Species Hf :    hydro orbital   4 s accepted.
  | Species Hf :    hydro orbital   3 s accepted.
  | Species Hf :   atomic orbital   2 p accepted.
  | Species Hf :   atomic orbital   3 p accepted.
  | Species Hf :   atomic orbital   4 p accepted.
  | Species Hf :   atomic orbital   5 p accepted.
  | Species Hf :    ionic orbital   6 p accepted.
  | Species Hf :    hydro orbital   3 p accepted.
  | Species Hf :   atomic orbital   3 d accepted.
  | Species Hf :   atomic orbital   4 d accepted.
  | Species Hf :    hydro orbital   3 d accepted.
  | Species Hf :    ionic orbital   5 d accepted.
  | Species Hf :    hydro orbital   4 d accepted.
  | Species Hf :   atomic orbital   5 d accepted.
  | Species Hf :   atomic orbital   4 f accepted.
  | Species Hf :    hydro orbital   4 f accepted.
  | Species Hf :    hydro orbital   5 f accepted.
  | Species Hf :    hydro orbital   5 g accepted.
  | Species Hf :    hydro orbital   6 h accepted.
  | Species S :   atomic orbital   1 s accepted.
  | Species S :   atomic orbital   2 s accepted.
  | Species S :    ionic orbital   3 s accepted.
  | Species S :   atomic orbital   3 s accepted.
  | Species S :    hydro orbital   1 s accepted.
  | Species S :   atomic orbital   2 p accepted.
  | Species S :   atomic orbital   3 p accepted.
  | Species S :    hydro orbital   2 p accepted.
  | Species S :    hydro orbital   4 p accepted.
  | Species S :    ionic orbital   3 d accepted.
  | Species S :    hydro orbital   4 d accepted.
  | Species S :    hydro orbital   4 f accepted.
  | Species S :    hydro orbital   5 f accepted.
  | Species S :    hydro orbital   5 g accepted.
 
  Basis size parameters after reduction:
  | Total number of radial functions:       39
  | Total number of basis functions :      394
 
  Per-task memory consumption for arrays in subroutine allocate_ext:
  |          14.787624MB.
  Testing on-site integration grid accuracy.
  |  Species  Function  <phi|h_atom|phi> (log., in eV)  <phi|h_atom|phi> (rad., in eV)
           1        1             -70337.1146698938             -70337.1000195033
           1        2             -11331.0822838340             -11331.0819974324
           1        3              -2553.1939241433              -2553.1939033442
           1        4               -512.3959483215               -512.3959435004
           1        5                -66.7328606804                -66.7328595152
           1        6                 -4.9609826843                 -4.9609662995
           1        7                  4.4947479361                  4.4949913073
           1        8                 28.7527526448                 28.7552191400
           1        9              -9935.3049395807              -9935.3049326924
           1       10              -2143.5097894823              -2143.5097845624
           1       11               -378.7307348171               -378.7307317592
           1       12                -35.3177612045                -35.3177605023
           1       13                 -0.3051418017                 -0.3051279404
           1       14                  8.1710841034                  8.1714360954
           1       15              -1660.6627840964              -1660.6627822102
           1       16               -206.4223091258               -206.4223074349
           1       17                 -1.1108014108                 -1.1108011651
           1       18                  9.2663821216                  9.2663821089
           1       19                 53.6250270951                 53.6250287567
           1       20                 31.5406305910                 31.5416476097
           1       21                -16.7254068200                -16.7254064907
           1       22                 13.9532729765                 13.9532741914
           1       23                 48.0813797185                 48.0813797916
           1       24                 39.4113660380                 39.4113660061
           1       25                 65.3093031931                 65.3093031256
           2       26              -2413.1254568977              -2413.1254096663
           2       27               -211.7513411281               -211.7513404762
           2       28                -16.9725280787                -16.9725279206
           2       29                  7.6024436204                  7.6024549059
           2       30                 48.5754986812                 48.5751292874
           2       31               -156.5192206929               -156.5192205451
           2       32                 -6.9959757887                 -6.9959777655
           2       33                  6.8896462808                  6.8895564741
           2       34                 27.2255287135                 27.2252601701
           2       35                  6.0214250550                  6.0214220200
           2       36                 19.6206468977                 19.6206494558
           2       37                 24.7008710786                 24.7008710738
           2       38                 58.2239314521                 58.2239319465
           2       39                 47.5292252001                 47.5292260486

  Preparing densities etc. for the partition functions (integrals / Hartree potential).

  Preparations completed.
  max(cpu_time)          :      0.624 s.
  Wall clock time (cpu1) :      0.620 s.
------------------------------------------------------------

------------------------------------------------------------
          Begin self-consistency loop: Initialization.

          Date     :  20191127, Time     :  202029.441
------------------------------------------------------------

  Initializing index lists of integration centers etc. from given atomic structure:
  Mapping all atomic coordinates to central unit cell.

  Initializing the k-points
          Using symmetry for reducing the k-points
  | k-points reduced from:      324 to      164
  | Number of k-points                             :       164
  The eigenvectors in the calculations are COMPLEX.
  | K-points in task   0:         2
  | K-points in task   1:         3
  | K-points in task   2:         3
  | K-points in task   3:         3
  | K-points in task   4:         3
  | K-points in task   5:         2
  | K-points in task   6:         2
  | K-points in task   7:         2
  | K-points in task   8:         2
  | K-points in task   9:         2
  | K-points in task  10:         2
  | K-points in task  11:         2
  | K-points in task  12:         2
  | K-points in task  13:         2
  | K-points in task  14:         2
  | K-points in task  15:         2
  | K-points in task  16:         2
  | K-points in task  17:         2
  | K-points in task  18:         2
  | K-points in task  19:         2
  | K-points in task  20:         2
  | K-points in task  21:         2
  | K-points in task  22:         2
  | K-points in task  23:         2
  | K-points in task  24:         2
  | K-points in task  25:         2
  | K-points in task  26:         2
  | K-points in task  27:         2
  | K-points in task  28:         2
  | K-points in task  29:         2
  | K-points in task  30:         2
  | K-points in task  31:         2
  | K-points in task  32:         2
  | K-points in task  33:         2
  | K-points in task  34:         2
  | K-points in task  35:         2
  | K-points in task  36:         2
  | K-points in task  37:         2
  | K-points in task  38:         2
  | K-points in task  39:         2
  | K-points in task  40:         2
  | K-points in task  41:         2
  | K-points in task  42:         2
  | K-points in task  43:         2
  | K-points in task  44:         2
  | K-points in task  45:         2
  | K-points in task  46:         2
  | K-points in task  47:         2
  | K-points in task  48:         2
  | K-points in task  49:         2
  | K-points in task  50:         2
  | K-points in task  51:         2
  | K-points in task  52:         2
  | K-points in task  53:         2
  | K-points in task  54:         2
  | K-points in task  55:         2
  | K-points in task  56:         2
  | K-points in task  57:         2
  | K-points in task  58:         2
  | K-points in task  59:         2
  | K-points in task  60:         2
  | K-points in task  61:         2
  | K-points in task  62:         2
  | K-points in task  63:         2
  | K-points in task  64:         2
  | K-points in task  65:         2
  | K-points in task  66:         2
  | K-points in task  67:         2
  | K-points in task  68:         2
  | K-points in task  69:         2
  | K-points in task  70:         2
  | K-points in task  71:         2
  | K-points in task  72:         2
  | K-points in task  73:         2
  | K-points in task  74:         2
  | K-points in task  75:         2
  | K-points in task  76:         2
  | K-points in task  77:         2
  | K-points in task  78:         2
  | K-points in task  79:         2
  | Number of basis functions in the Hamiltonian integrals :      5534
  | Number of basis functions in a single unit cell        :       394
  | Number of centers in hartree potential         :       582
  | Number of centers in hartree multipole         :       306
  | Number of centers in electron density summation:       254
  | Number of centers in basis integrals           :       270
  | Number of centers in integrals                 :       114
  | Number of centers in hamiltonian               :       254
  | Consuming        123 KiB for k_phase.
  | Number of super-cells (origin) [n_cells]                     :         675
  | Number of super-cells (after PM_index) [n_cells]             :          48
  | Number of super-cells in hamiltonian [n_cells_in_hamiltonian]:          48
  | Size of matrix packed + index [n_hamiltonian_matrix_size] :     1493696
  Initializing relaxation algorithms.
  Partitioning the integration grid into batches with parallel hashing+maxmin method.
  | Number of batches:     1770
  | Maximal batch size:     196
  | Minimal batch size:       1
  | Average batch size:      86.081
  | Standard deviation of batch sizes:      26.172

  Integration load balanced across    80 MPI tasks.
  Work distribution over tasks is as follows:
  Task     0 has       1931 integration points.
  Task     1 has       1995 integration points.
  Task     2 has       1878 integration points.
  Task     3 has       1983 integration points.
  Task     4 has       1880 integration points.
  Task     5 has       1882 integration points.
  Task     6 has       1973 integration points.
  Task     7 has       1884 integration points.
  Task     8 has       1934 integration points.
  Task     9 has       1879 integration points.
  Task    10 has       1985 integration points.
  Task    11 has       1853 integration points.
  Task    12 has       1875 integration points.
  Task    13 has       1886 integration points.
  Task    14 has       1932 integration points.
  Task    15 has       1880 integration points.
  Task    16 has       1876 integration points.
  Task    17 has       1980 integration points.
  Task    18 has       1875 integration points.
  Task    19 has       1972 integration points.
  Task    20 has       1853 integration points.
  Task    21 has       1852 integration points.
  Task    22 has       1860 integration points.
  Task    23 has       1877 integration points.
  Task    24 has       1855 integration points.
  Task    25 has       1949 integration points.
  Task    26 has       1880 integration points.
  Task    27 has       1856 integration points.
  Task    28 has       1981 integration points.
  Task    29 has       1880 integration points.
  Task    30 has       1881 integration points.
  Task    31 has       1882 integration points.
  Task    32 has       1974 integration points.
  Task    33 has       1904 integration points.
  Task    34 has       1877 integration points.
  Task    35 has       1875 integration points.
  Task    36 has       1976 integration points.
  Task    37 has       1873 integration points.
  Task    38 has       1944 integration points.
  Task    39 has       1854 integration points.
  Task    40 has       1949 integration points.
  Task    41 has       1877 integration points.
  Task    42 has       1883 integration points.
  Task    43 has       1877 integration points.
  Task    44 has       1879 integration points.
  Task    45 has       1979 integration points.
  Task    46 has       1951 integration points.
  Task    47 has       1868 integration points.
  Task    48 has       2019 integration points.
  Task    49 has       1934 integration points.
  Task    50 has       1851 integration points.
  Task    51 has       1882 integration points.
  Task    52 has       1851 integration points.
  Task    53 has       1880 integration points.
  Task    54 has       1851 integration points.
  Task    55 has       1932 integration points.
  Task    56 has       1851 integration points.
  Task    57 has       1882 integration points.
  Task    58 has       1883 integration points.
  Task    59 has       1880 integration points.
  Task    60 has       1873 integration points.
  Task    61 has       1883 integration points.
  Task    62 has       1933 integration points.
  Task    63 has       1882 integration points.
  Task    64 has       1871 integration points.
  Task    65 has       1878 integration points.
  Task    66 has       1877 integration points.
  Task    67 has       1935 integration points.
  Task    68 has       2009 integration points.
  Task    69 has       1878 integration points.
  Task    70 has       1882 integration points.
  Task    71 has       2024 integration points.
  Task    72 has       1876 integration points.
  Task    73 has       1851 integration points.
  Task    74 has       1850 integration points.
  Task    75 has       1970 integration points.
  Task    76 has       1854 integration points.
  Task    77 has       1936 integration points.
  Task    78 has       1973 integration points.
  Task    79 has       1954 integration points.
  Initializing partition tables, free-atom densities, potentials, etc. across the integration grid (initialize_grid_storage).
  | initialize_grid_storage: Actual outermost partition radius vs. multipole_radius_free
  | (-- VB: in principle, multipole_radius_free should be larger, hence this output)
  | Species        1: Confinement radius =              6.000000000000000 AA, multipole_radius_free =              6.010396164504727 AA.
  | Species        1: outer_partition_radius set to              6.010396164504727 AA .
  | Species        2: Confinement radius =              6.000000000000000 AA, multipole_radius_free =              6.012827091137924 AA.
  | Species        2: outer_partition_radius set to              6.012827091137924 AA .
  | Original list of interatomic distances with         270 x        270 entries is created.
  | Net number of integration points:   152364
  | of which are non-zero points    :   125974
  | Numerical average free-atom electrostatic potential    :     -1.90993214 eV
  Renormalizing the initial density to the exact electron count on the 3D integration grid.
  | Initial density: Formal number of electrons (from input files) :     208.0000000000
  | Integrated number of electrons on 3D grid     :     207.9999175582
  | Charge integration error                      :      -0.0000824418
  | Normalization factor for density and gradient :       1.0000003964
  Obtaining max. number of non-zero basis functions in each batch (get_n_compute_maxes).
  | Maximal number of non-zero basis functions:     1800 in task     0
  | Maximal number of non-zero basis functions:     1650 in task     1
  | Maximal number of non-zero basis functions:     1817 in task     2
  | Maximal number of non-zero basis functions:     1683 in task     3
  | Maximal number of non-zero basis functions:     1756 in task     4
  | Maximal number of non-zero basis functions:     1898 in task     5
  | Maximal number of non-zero basis functions:     1701 in task     6
  | Maximal number of non-zero basis functions:     1832 in task     7
  | Maximal number of non-zero basis functions:     1804 in task     8
  | Maximal number of non-zero basis functions:     1815 in task     9
  | Maximal number of non-zero basis functions:     1732 in task    10
  | Maximal number of non-zero basis functions:     1888 in task    11
  | Maximal number of non-zero basis functions:     1938 in task    12
  | Maximal number of non-zero basis functions:     1746 in task    13
  | Maximal number of non-zero basis functions:     1804 in task    14
  | Maximal number of non-zero basis functions:     1808 in task    15
  | Maximal number of non-zero basis functions:     1822 in task    16
  | Maximal number of non-zero basis functions:     1777 in task    17
  | Maximal number of non-zero basis functions:     1783 in task    18
  | Maximal number of non-zero basis functions:     1785 in task    19
  | Maximal number of non-zero basis functions:     1929 in task    20
  | Maximal number of non-zero basis functions:     1877 in task    21
  | Maximal number of non-zero basis functions:     1776 in task    22
  | Maximal number of non-zero basis functions:     1781 in task    23
  | Maximal number of non-zero basis functions:     1816 in task    24
  | Maximal number of non-zero basis functions:     1889 in task    25
  | Maximal number of non-zero basis functions:     1822 in task    26
  | Maximal number of non-zero basis functions:     1739 in task    27
  | Maximal number of non-zero basis functions:     1808 in task    28
  | Maximal number of non-zero basis functions:     1776 in task    29
  | Maximal number of non-zero basis functions:     1770 in task    30
  | Maximal number of non-zero basis functions:     1862 in task    31
  | Maximal number of non-zero basis functions:     1906 in task    32
  | Maximal number of non-zero basis functions:     1803 in task    33
  | Maximal number of non-zero basis functions:     1796 in task    34
  | Maximal number of non-zero basis functions:     1752 in task    35
  | Maximal number of non-zero basis functions:     1825 in task    36
  | Maximal number of non-zero basis functions:     1776 in task    37
  | Maximal number of non-zero basis functions:     1817 in task    38
  | Maximal number of non-zero basis functions:     1740 in task    39
  | Maximal number of non-zero basis functions:     1905 in task    40
  | Maximal number of non-zero basis functions:     1840 in task    41
  | Maximal number of non-zero basis functions:     1854 in task    42
  | Maximal number of non-zero basis functions:     1826 in task    43
  | Maximal number of non-zero basis functions:     1794 in task    44
  | Maximal number of non-zero basis functions:     1806 in task    45
  | Maximal number of non-zero basis functions:     1841 in task    46
  | Maximal number of non-zero basis functions:     1904 in task    47
  | Maximal number of non-zero basis functions:     1813 in task    48
  | Maximal number of non-zero basis functions:     1780 in task    49
  | Maximal number of non-zero basis functions:     1752 in task    50
  | Maximal number of non-zero basis functions:     1796 in task    51
  | Maximal number of non-zero basis functions:     1833 in task    52
  | Maximal number of non-zero basis functions:     1797 in task    53
  | Maximal number of non-zero basis functions:     1940 in task    54
  | Maximal number of non-zero basis functions:     1870 in task    55
  | Maximal number of non-zero basis functions:     1932 in task    56
  | Maximal number of non-zero basis functions:     1880 in task    57
  | Maximal number of non-zero basis functions:     1769 in task    58
  | Maximal number of non-zero basis functions:     1896 in task    59
  | Maximal number of non-zero basis functions:     1870 in task    60
  | Maximal number of non-zero basis functions:     1741 in task    61
  | Maximal number of non-zero basis functions:     1709 in task    62
  | Maximal number of non-zero basis functions:     1780 in task    63
  | Maximal number of non-zero basis functions:     1929 in task    64
  | Maximal number of non-zero basis functions:     1791 in task    65
  | Maximal number of non-zero basis functions:     1845 in task    66
  | Maximal number of non-zero basis functions:     1963 in task    67
  | Maximal number of non-zero basis functions:     1710 in task    68
  | Maximal number of non-zero basis functions:     1925 in task    69
  | Maximal number of non-zero basis functions:     1912 in task    70
  | Maximal number of non-zero basis functions:     1879 in task    71
  | Maximal number of non-zero basis functions:     1831 in task    72
  | Maximal number of non-zero basis functions:     1927 in task    73
  | Maximal number of non-zero basis functions:     1861 in task    74
  | Maximal number of non-zero basis functions:     1843 in task    75
  | Maximal number of non-zero basis functions:     1882 in task    76
  | Maximal number of non-zero basis functions:     1912 in task    77
  | Maximal number of non-zero basis functions:     1777 in task    78
  | Maximal number of non-zero basis functions:     1880 in task    79
  Allocating        1.689 MB for KS_eigenvector_complex
  Integrating Hamiltonian matrix: batch-based integration.
  Time summed over all CPUs for integration: real work       54.099 s, elapsed       58.100 s
  Integrating overlap matrix.
  Time summed over all CPUs for integration: real work       40.754 s, elapsed       44.025 s
  Decreasing sparse matrix size:
   Tolerance:  9.999999824516700E-014
   Hamiltonian matrix
  | Array has  1241803 nonzero elements out of  1493696 elements
  | Sparsity factor is 0.169
   Overlap matrix
  | Array has  1156113 nonzero elements out of  1493696 elements
  | Sparsity factor is 0.226
  New size of hamiltonian matrix:     1249022

  Updating Kohn-Sham eigenvalues and eigenvectors using ELSI and the ELPA eigensolver.
  Overlap matrix is nonsingular
  | Lowest eigenvalue of overlap  :  0.54E-04
  | Highest eigenvalue of overlap :  0.85E+01
  Finished singularity check of overlap matrix
  | Time :     0.030 s
  Finished Cholesky decomposition
  | Time :     0.008 s
  Finished transformation to standard eigenproblem
  | Time :     0.014 s
  Starting LAPACK eigensolver
  Finished solving standard eigenproblem
  | Time :     0.033 s
  Finished back-transformation of eigenvectors
  | Time :     0.005 s

  Obtaining occupation numbers and chemical potential using ELSI.
  | Chemical potential (Fermi level):    -7.57740436eV
  Writing Kohn-Sham eigenvalues.
  K-point:       1 at    0.000000    0.000000    0.000000 (in units of recip. lattice)

  State    Occupation    Eigenvalue [Ha]    Eigenvalue [eV]
      1       2.00000       -2584.851869       -70337.39808
      2       2.00000       -2584.851869       -70337.39808
      3       2.00000        -416.418544       -11331.32512
      4       2.00000        -416.418544       -11331.32512
      5       2.00000        -365.124471        -9935.54236
      6       2.00000        -365.124471        -9935.54236
      7       2.00000        -365.124471        -9935.54236
      8       2.00000        -365.124471        -9935.54236
      9       2.00000        -365.124465        -9935.54220
     10       2.00000        -365.124465        -9935.54220
     11       2.00000         -93.837116        -2553.43786
     12       2.00000         -93.837116        -2553.43786
     13       2.00000         -88.710335        -2413.93104
     14       2.00000         -88.710335        -2413.93104
     15       2.00000         -88.710334        -2413.93100
     16       2.00000         -88.710334        -2413.93100
     17       2.00000         -78.781476        -2143.75302
     18       2.00000         -78.781476        -2143.75302
     19       2.00000         -78.781476        -2143.75302
     20       2.00000         -78.781476        -2143.75302
     21       2.00000         -78.781436        -2143.75195
     22       2.00000         -78.781436        -2143.75195
     23       2.00000         -61.037137        -1660.90502
     24       2.00000         -61.037137        -1660.90502
     25       2.00000         -61.037137        -1660.90502
     26       2.00000         -61.037137        -1660.90502
     27       2.00000         -61.037114        -1660.90439
     28       2.00000         -61.037114        -1660.90439
     29       2.00000         -61.037114        -1660.90439
     30       2.00000         -61.037114        -1660.90439
     31       2.00000         -61.037106        -1660.90415
     32       2.00000         -61.037106        -1660.90415
     33       2.00000         -18.840075         -512.66451
     34       2.00000         -18.840075         -512.66451
     35       2.00000         -13.928214         -379.00600
     36       2.00000         -13.928214         -379.00600
     37       2.00000         -13.928214         -379.00600
     38       2.00000         -13.928214         -379.00600
     39       2.00000         -13.927979         -378.99958
     40       2.00000         -13.927979         -378.99958
     41       2.00000          -7.814081         -212.63196
     42       2.00000          -7.814081         -212.63195
     43       2.00000          -7.814078         -212.63187
     44       2.00000          -7.814078         -212.63187
     45       2.00000          -7.596335         -206.70678
     46       2.00000          -7.596335         -206.70678
     47       2.00000          -7.596335         -206.70678
     48       2.00000          -7.596335         -206.70678
     49       2.00000          -7.596138         -206.70143
     50       2.00000          -7.596138         -206.70143
     51       2.00000          -7.596138         -206.70143
     52       2.00000          -7.596138         -206.70143
     53       2.00000          -7.596031         -206.69852
     54       2.00000          -7.596031         -206.69852
     55       2.00000          -5.784060         -157.39229
     56       2.00000          -5.784060         -157.39229
     57       2.00000          -5.784060         -157.39229
     58       2.00000          -5.784060         -157.39229
     59       2.00000          -5.784058         -157.39222
     60       2.00000          -5.784058         -157.39222
     61       2.00000          -5.784058         -157.39222
     62       2.00000          -5.784058         -157.39222
     63       2.00000          -5.783954         -157.38939
     64       2.00000          -5.783954         -157.38938
     65       2.00000          -5.783950         -157.38929
     66       2.00000          -5.783950         -157.38929
     67       2.00000          -2.471064          -67.24108
     68       2.00000          -2.471064          -67.24108
     69       2.00000          -1.324779          -36.04907
     70       2.00000          -1.324778          -36.04904
     71       2.00000          -1.322883          -35.99748
     72       2.00000          -1.322883          -35.99748
     73       2.00000          -1.322883          -35.99748
     74       2.00000          -1.322883          -35.99748
     75       2.00000          -0.752309          -20.47138
     76       2.00000          -0.751383          -20.44616
     77       2.00000          -0.705784          -19.20537
     78       2.00000          -0.704301          -19.16501
     79       2.00000          -0.628196          -17.09408
     80       2.00000          -0.628196          -17.09408
     81       2.00000          -0.628196          -17.09408
     82       2.00000          -0.628196          -17.09408
     83       2.00000          -0.627175          -17.06630
     84       2.00000          -0.627156          -17.06578
     85       2.00000          -0.626739          -17.05443
     86       2.00000          -0.626739          -17.05443
     87       2.00000          -0.626651          -17.05203
     88       2.00000          -0.626651          -17.05203
     89       2.00000          -0.626651          -17.05203
     90       2.00000          -0.626651          -17.05203
     91       2.00000          -0.625656          -17.02497
     92       2.00000          -0.625539          -17.02177
     93       2.00000          -0.417650          -11.36483
     94       2.00000          -0.409399          -11.14030
     95       2.00000          -0.362876           -9.87436
     96       2.00000          -0.362876           -9.87436
     97       2.00000          -0.362711           -9.86986
     98       2.00000          -0.362710           -9.86985
     99       2.00000          -0.316170           -8.60343
    100       2.00000          -0.301208           -8.19628
    101       2.00000          -0.280451           -7.63145
    102       2.00000          -0.280451           -7.63145
    103       2.00000          -0.279966           -7.61827
    104       2.00000          -0.279966           -7.61827
    105       0.00000          -0.158790           -4.32089
    106       0.00000          -0.158790           -4.32088
    107       0.00000          -0.158546           -4.31426
    108       0.00000          -0.158546           -4.31425
    109       0.00000          -0.134135           -3.65000
    110       0.00000          -0.130401           -3.54840
    111       0.00000          -0.060509           -1.64655
    112       0.00000          -0.040003           -1.08853
    113       0.00000          -0.040002           -1.08851
    114       0.00000          -0.039899           -1.08572
    115       0.00000          -0.037714           -1.02624
    116       0.00000          -0.037712           -1.02620
    117       0.00000          -0.034055           -0.92669
    118       0.00000          -0.033619           -0.91481
    119       0.00000           0.036610            0.99620
    120       0.00000           0.063703            1.73344
    121       0.00000           0.096725            2.63202
    122       0.00000           0.096726            2.63204
    123       0.00000           0.097685            2.65815
    124       0.00000           0.097687            2.65819
    125       0.00000           0.103415            2.81407
    126       0.00000           0.226421            6.16123
    127       0.00000           0.227628            6.19409
    128       0.00000           0.241060            6.55958
    129       0.00000           0.241061            6.55960
    130       0.00000           0.242299            6.59330
    131       0.00000           0.246745            6.71427
    132       0.00000           0.246755            6.71454
    133       0.00000           0.251618            6.84688
    134       0.00000           0.259117            7.05094

  What follows are estimated values for band gap, HOMO, LUMO, etc.
  | They are estimated on a discrete k-point grid and not necessarily exact.
  | For converged numbers, create a DOS and/or band structure plot on a denser k-grid.

  Highest occupied state (VBM) at     -7.61826841 eV (relative to internal zero)
  | Occupation number:      1.99999999
  | K-point:       1 at    0.000000    0.000000    0.000000 (in units of recip. lattice)

  Lowest unoccupied state (CBM) at    -5.35845326 eV (relative to internal zero)
  | Occupation number:      0.00000000
  | K-point:       8 at    0.000000    0.500000    0.000000 (in units of recip. lattice)

  ESTIMATED overall HOMO-LUMO gap:      2.25981515 eV between HOMO at k-point 1 and LUMO at k-point 8
  | This appears to be an indirect band gap.
  | Smallest direct gap :      3.06622102 eV for k_point 9 at    0.000000    0.500000    0.000000 (in units of recip. lattice)
  The gap value is above 0.2 eV. Unless you are using a very sparse k-point grid,
  this system is most likely an insulator or a semiconductor.
  Calculating total energy contributions from superposition of free atom densities.

  Total energy components:
  | Sum of eigenvalues            :      -20291.06421560 Ha     -552147.95028484 eV
  | XC energy correction          :        -726.02734316 Ha      -19756.20919229 eV
  | XC potential correction       :         947.81824863 Ha       25791.44679967 eV
  | Free-atom electrostatic energy:      -12555.23369399 Ha     -341645.29153444 eV
  | Hartree energy correction     :           0.00000000 Ha           0.00000000 eV
  | Entropy correction            :          -0.00000000 Ha          -0.00000000 eV
  | ---------------------------
  | Total energy                  :      -32624.50700411 Ha     -887758.00421190 eV
  | Total energy, T -> 0          :      -32624.50700411 Ha     -887758.00421190 eV  <-- do not rely on this value for anything but (periodic) metals
  | Electronic free energy        :      -32624.50700411 Ha     -887758.00421190 eV

  Derived energy quantities:
  | Kinetic energy                :       35661.45419209 Ha      970397.54185014 eV
  | Electrostatic energy          :      -67559.93385304 Ha    -1838399.33686975 eV
  | Energy correction for multipole
  | error in Hartree potential    :           0.00000000 Ha           0.00000000 eV
  | Sum of eigenvalues per atom                           :      -92024.65838081 eV
  | Total energy (T->0) per atom                          :     -147959.66736865 eV  <-- do not rely on this value for anything but (periodic) metals
  | Electronic free energy per atom                       :     -147959.66736865 eV
  Initialize hartree_potential_storage
  Max. number of atoms included in rho_multipole:            6

  End scf initialization - timings             :  max(cpu_time)    wall_clock(cpu1)
  | Time for scf. initialization               :        2.792 s           2.788 s
  | Boundary condition initialization          :        0.840 s           0.833 s
  | Relaxation initialization                  :        0.004 s           0.001 s
  | Integration                                :        1.348 s           1.346 s
  | Solution of K.-S. eqns.                    :        0.356 s           0.355 s
  | Grid partitioning                          :        0.116 s           0.111 s
  | Preloading free-atom quantities on grid    :        0.016 s           0.012 s
  | Free-atom superposition energy             :        0.012 s           0.008 s
  | Total energy evaluation                    :        0.004 s           0.001 s

  Partial memory accounting:
  | Current value for overall tracked memory usage on task 0  :          26.671 MB
  | Peak value for overall tracked memory usage on task 0     :          65.995 MB after allocating wave
  | Largest tracked array allocation on task 0 so far         :          25.920 MB  when allocating hamiltonian_shell
  Note:  These values currently only include a subset of arrays which are explicitly tracked.
  The "true" memory usage will be greater.
------------------------------------------------------------

------------------------------------------------------------
          Begin self-consistency iteration #    1

  Date     :  20191127, Time     :  202032.229
------------------------------------------------------------
  Evaluating new KS density using the density matrix
  Evaluating density matrix
  Time summed over all CPUs for getting density from density matrix: real work      110.646 s, elapsed      118.531 s
  Integration grid: deviation in total charge (<rho> - N_e) =  -4.635581E-11
  Pulay mixing of updated and previous charge densities.

  Evaluating partitioned Hartree potential by multipole expansion.
  | Analytical far-field extrapolation by fixed multipoles:
  | Hartree multipole sum: apparent total charge =   0.660998E-03
  Summing up the Hartree potential.
  | Estimated reciprocal-space cutoff momentum G_max:         1.90186217 bohr^-1 .
  | Reciprocal lattice points for long-range Hartree potential:     882
  Time summed over all CPUs for potential: real work       10.229 s, elapsed       10.852 s
  | RMS charge density error from multipole expansion :   0.381935E-03
  | Average real-space part of the electrostatic potential :      0.00186706 eV

  Integrating Hamiltonian matrix: batch-based integration.
  Time summed over all CPUs for integration: real work       51.888 s, elapsed       55.621 s

  Updating Kohn-Sham eigenvalues and eigenvectors using ELSI and the ELPA eigensolver.
  Finished Cholesky decomposition
  | Time :     0.008 s
  Finished transformation to standard eigenproblem
  | Time :     0.014 s
  Starting LAPACK eigensolver
  Finished solving standard eigenproblem
  | Time :     0.033 s
  Finished back-transformation of eigenvectors
  | Time :     0.004 s

  Obtaining occupation numbers and chemical potential using ELSI.
  | Chemical potential (Fermi level):    -7.54222512eV
  Writing Kohn-Sham eigenvalues.
  K-point:       1 at    0.000000    0.000000    0.000000 (in units of recip. lattice)

  State    Occupation    Eigenvalue [Ha]    Eigenvalue [eV]
      1       2.00000       -2584.861179       -70337.65143
      2       2.00000       -2584.861179       -70337.65143
      3       2.00000        -416.427822       -11331.57759
      4       2.00000        -416.427822       -11331.57759
      5       2.00000        -365.133763        -9935.79523
      6       2.00000        -365.133763        -9935.79523
      7       2.00000        -365.133763        -9935.79523
      8       2.00000        -365.133763        -9935.79523
      9       2.00000        -365.133758        -9935.79508
     10       2.00000        -365.133758        -9935.79508
     11       2.00000         -93.845928        -2553.67762
     12       2.00000         -93.845928        -2553.67762
     13       2.00000         -88.704107        -2413.76156
     14       2.00000         -88.704107        -2413.76156
     15       2.00000         -88.703912        -2413.75626
     16       2.00000         -88.703912        -2413.75626
     17       2.00000         -78.790284        -2143.99272
     18       2.00000         -78.790284        -2143.99272
     19       2.00000         -78.790284        -2143.99272
     20       2.00000         -78.790284        -2143.99272
     21       2.00000         -78.790243        -2143.99160
     22       2.00000         -78.790243        -2143.99160
     23       2.00000         -61.046030        -1661.14698
     24       2.00000         -61.046030        -1661.14698
     25       2.00000         -61.046030        -1661.14698
     26       2.00000         -61.046030        -1661.14698
     27       2.00000         -61.046004        -1661.14628
     28       2.00000         -61.046004        -1661.14628
     29       2.00000         -61.046004        -1661.14628
     30       2.00000         -61.046004        -1661.14628
     31       2.00000         -61.045998        -1661.14612
     32       2.00000         -61.045998        -1661.14612
     33       2.00000         -18.847798         -512.87469
     34       2.00000         -18.847798         -512.87469
     35       2.00000         -13.935809         -379.21265
     36       2.00000         -13.935809         -379.21265
     37       2.00000         -13.935809         -379.21265
     38       2.00000         -13.935809         -379.21265
     39       2.00000         -13.935613         -379.20733
     40       2.00000         -13.935613         -379.20733
     41       2.00000          -7.809498         -212.50725
     42       2.00000          -7.809498         -212.50724
     43       2.00000          -7.809308         -212.50209
     44       2.00000          -7.809308         -212.50209
     45       2.00000          -7.603782         -206.90942
     46       2.00000          -7.603782         -206.90942
     47       2.00000          -7.603782         -206.90942
     48       2.00000          -7.603782         -206.90942
     49       2.00000          -7.603622         -206.90507
     50       2.00000          -7.603622         -206.90507
     51       2.00000          -7.603622         -206.90507
     52       2.00000          -7.603622         -206.90507
     53       2.00000          -7.603547         -206.90303
     54       2.00000          -7.603547         -206.90303
     55       2.00000          -5.779335         -157.26371
     56       2.00000          -5.779335         -157.26371
     57       2.00000          -5.779335         -157.26370
     58       2.00000          -5.779335         -157.26370
     59       2.00000          -5.779228         -157.26079
     60       2.00000          -5.779228         -157.26079
     61       2.00000          -5.779146         -157.25855
     62       2.00000          -5.779146         -157.25855
     63       2.00000          -5.779146         -157.25855
     64       2.00000          -5.779146         -157.25855
     65       2.00000          -5.779037         -157.25559
     66       2.00000          -5.779037         -157.25559
     67       2.00000          -2.476605          -67.39184
     68       2.00000          -2.476605          -67.39184
     69       2.00000          -1.329768          -36.18482
     70       2.00000          -1.329767          -36.18479
     71       2.00000          -1.327632          -36.12670
     72       2.00000          -1.327632          -36.12670
     73       2.00000          -1.327632          -36.12670
     74       2.00000          -1.327632          -36.12670
     75       2.00000          -0.750867          -20.43213
     76       2.00000          -0.749920          -20.40637
     77       2.00000          -0.704501          -19.17043
     78       2.00000          -0.703007          -19.12979
     79       2.00000          -0.635144          -17.28315
     80       2.00000          -0.635144          -17.28314
     81       2.00000          -0.635143          -17.28313
     82       2.00000          -0.635143          -17.28313
     83       2.00000          -0.634151          -17.25612
     84       2.00000          -0.634139          -17.25579
     85       2.00000          -0.633715          -17.24427
     86       2.00000          -0.633715          -17.24427
     87       2.00000          -0.633701          -17.24388
     88       2.00000          -0.633701          -17.24388
     89       2.00000          -0.633701          -17.24388
     90       2.00000          -0.633701          -17.24388
     91       2.00000          -0.632425          -17.20917
     92       2.00000          -0.632285          -17.20535
     93       2.00000          -0.417559          -11.36236
     94       2.00000          -0.409249          -11.13622
     95       2.00000          -0.362437           -9.86242
     96       2.00000          -0.362437           -9.86242
     97       2.00000          -0.362272           -9.85792
     98       2.00000          -0.362272           -9.85791
     99       2.00000          -0.315162           -8.57600
    100       2.00000          -0.300029           -8.16420
    101       2.00000          -0.279164           -7.59645
[...]
  | Electrostatic energy          :      -67559.89955521 Ha    -1838398.40357820 eV
  | Energy correction for multipole
  | error in Hartree potential    :          -0.00250507 Ha          -0.06816644 eV
  | Sum of eigenvalues per atom                           :      -92034.47907293 eV
  | Total energy (T->0) per atom                          :     -147959.69326698 eV  <-- do not rely on this value for anything but (periodic) metals
  | Electronic free energy per atom                       :     -147959.69326698 eV

  atomic forces [eV/Ang]:
  -----------------------
  atom #    1
   Hellmann-Feynman              : -0.419059E-04 -0.308622E-04  0.166025E+01
   Ionic forces                  :  0.000000E+00  0.000000E+00  0.000000E+00
   Multipole                     : -0.203233E-04  0.435040E-04  0.515091E-02
   Pulay + GGA                   :  0.871593E-04 -0.882757E-04 -0.170121E+01
   Van der Waals                 : -0.543968E-04  0.265391E-04  0.343820E-01
   ----------------------------------------------------------------
   Total forces(   1)            : -0.294667E-04 -0.490948E-04 -0.143320E-02
  atom #    2
   Hellmann-Feynman              :  0.468718E-03 -0.655581E-03  0.148036E+02
   Ionic forces                  :  0.000000E+00  0.000000E+00  0.000000E+00
   Multipole                     :  0.836131E-05 -0.391212E-03  0.853848E-01
   Pulay + GGA                   : -0.130503E-02  0.147579E-02 -0.148341E+02
   Van der Waals                 :  0.338776E-03 -0.194014E-03 -0.531910E-01
   ----------------------------------------------------------------
   Total forces(   2)            : -0.489179E-03  0.234982E-03  0.164360E-02
  atom #    3
   Hellmann-Feynman              : -0.471929E-03  0.612340E-03 -0.148097E+02
   Ionic forces                  :  0.000000E+00  0.000000E+00  0.000000E+00
   Multipole                     : -0.829244E-05  0.410160E-03 -0.853503E-01
   Pulay + GGA                   :  0.131356E-02 -0.134269E-02  0.148440E+02
   Van der Waals                 : -0.338314E-03  0.194083E-03  0.532334E-01
   ----------------------------------------------------------------
   Total forces(   3)            :  0.495023E-03 -0.126103E-03  0.212927E-02
  atom #    4
   Hellmann-Feynman              :  0.510431E-04  0.132830E-02 -0.167745E+01
   Ionic forces                  :  0.000000E+00  0.000000E+00  0.000000E+00
   Multipole                     :  0.200453E-04 -0.502779E-04 -0.457741E-02
   Pulay + GGA                   : -0.877085E-04 -0.141129E-02  0.171061E+01
   Van der Waals                 :  0.535916E-04 -0.271344E-04 -0.344603E-01
   ----------------------------------------------------------------
   Total forces(   4)            :  0.369714E-04 -0.160403E-03 -0.587758E-02
  atom #    5
   Hellmann-Feynman              :  0.374863E-03 -0.539677E-02  0.139774E+02
   Ionic forces                  :  0.000000E+00  0.000000E+00  0.000000E+00
   Multipole                     :  0.666280E-05 -0.393021E-03  0.698870E-01
   Pulay + GGA                   : -0.122819E-02  0.637818E-02 -0.141135E+02
   Van der Waals                 :  0.327369E-03 -0.184624E-03  0.666774E-01
   ----------------------------------------------------------------
   Total forces(   5)            : -0.519295E-03  0.403767E-03  0.535311E-03
  atom #    6
   Hellmann-Feynman              : -0.372950E-03  0.532650E-02 -0.139827E+02
   Ionic forces                  :  0.000000E+00  0.000000E+00  0.000000E+00
   Multipole                     : -0.650500E-05  0.412477E-03 -0.698217E-01
   Pulay + GGA                   :  0.121958E-02 -0.623915E-02  0.141222E+02
   Van der Waals                 : -0.327026E-03  0.185150E-03 -0.666414E-01
   ----------------------------------------------------------------
   Total forces(   6)            :  0.513094E-03 -0.315030E-03  0.307599E-02


  Analytical stress tensor components [eV]         xx                  yy                  zz                  xy                  xz                  yz
  -----------------------------------------------------------------------------------------------------------------------------------------------------------
    Nuclear Hellmann-Feynman      :    -0.2911556928E+01   -0.2926994082E+01    0.1225356169E+03   -0.4104211545E-02   -0.1910685518E-02   -0.1532543738E-02
    Multipole Hellmann-Feynman    :    -0.1048877806E+03   -0.1048969688E+03    0.4792879077E+02    0.6605055148E-02    0.6817099684E-02   -0.3661870236E-02
    On-site Multipole corrections :    -0.8714675866E+01   -0.8714269099E+01   -0.8714503648E+01   -0.1337043657E-06   -0.4545793755E-06    0.1809355875E-03
    Strain deriv. of the orbitals :     0.1147360256E+03    0.1147608891E+03   -0.1624868827E+03   -0.1207088403E-02    0.5922614465E-04    0.3458626386E-02
    vdW correction   :     0.1800739889E+01    0.1773294325E+01    0.8667159476E+00   -0.2369649076E-01   -0.2333055880E-02    0.1320949606E-02
  -----------------------------------------------------------------------------------------------------------------------------------------------------------
  Sum of all contributions        :     0.2275215958E-01   -0.4048588486E-02    0.1297371993E+00   -0.2240286926E-01    0.2632129852E-02   -0.2339023959E-03

  +-------------------------------------------------------------------+
  |              Analytical stress tensor - Symmetrized               |
  |                  Cartesian components [eV/A**3]                   |
  +-------------------------------------------------------------------+
  |                x                y                z                |
  |                                                                   |
  |  x         0.00002021      -0.00001990       0.00000234           |
  |  y        -0.00001990      -0.00000360      -0.00000021           |
  |  z         0.00000234      -0.00000021       0.00011523           |
  |                                                                   |
  |  Pressure:      -0.00004395   [eV/A**3]                           |
  |                                                                   |
  +-------------------------------------------------------------------+

 * Warning: Stress tensor is anisotropic. Be aware that pressure is an isotropic quantity.

  Timings for VdW correction (Tkatchenko-Scheffler 2009 or later):
  | CPU time:        1.232 s, Wall clock time:        1.230 s.
  Removing unitary transformations (pure translations, rotations) from forces on atoms.
  Atomic forces before filtering:
  | Net force on center of mass :   0.714739E-05 -0.118817E-04  0.733859E-04 eV/A
  Removing unitary transformations (rotations) from forces on lattice.
  Lattice forces before filtering:
  | Net torque relative to origin:   0.941442E-21  0.204662E-20 -0.921958E-19 eV
  Atomic forces after filtering:
  | Net force on center of mass :  -0.261337E-18  0.000000E+00  0.696899E-18 eV/A
  Lattice forces after filtering:
  | Net torque relative to origin:   0.941442E-21  0.204662E-20 -0.921958E-19 eV

  Energy and forces in a compact form:
  | Total energy uncorrected      :         -0.887758159601902E+06 eV
  | Total energy corrected        :         -0.887758159601902E+06 eV  <-- do not rely on this value for anything but (periodic) metals
  | Electronic free energy        :         -0.887758159601902E+06 eV
  Total atomic forces (unitary forces cleaned) [eV/Ang]:
  |   1         -0.306579538733971E-04         -0.471144734120308E-04         -0.144543046648168E-02
  |   2         -0.490370404503143E-03          0.236961809833859E-03          0.163136623148269E-02
  |   3          0.493832198744479E-03         -0.124122638454746E-03          0.211703704233529E-02
  |   4          0.357801714645602E-04         -0.158422436845650E-03         -0.588980914346715E-02
  |   5         -0.520486527266792E-03          0.405747606512961E-03          0.523080043408399E-03
  |   6          0.511902515434292E-03         -0.313049867634393E-03          0.306375629272246E-02

  ------------------------------------ 
  Start decomposition of the XC Energy 
  ------------------------------------ 
  X and C from original XC functional choice 
  Hartree-Fock Energy :          0.000000000 Ha              0.000000000 eV
  X Energy            :       -714.984871688 Ha         -19455.728255183 eV
  C Energy            :        -11.190652219 Ha           -304.513140329 eV
  Total XC Energy     :       -726.175523907 Ha         -19760.241395512 eV
  ------------------------------------ 
  LDA X and C from self-consistent density 
  X Energy LDA        :       -682.658317297 Ha         -18576.077954092 eV
  C Energy LDA        :        -19.829678556 Ha           -539.593007706 eV
  ------------------------------------ 
  End decomposition of the XC Energy 
  ------------------------------------ 

------------------------------------------------------------
  Relaxation / MD: End force evaluation.       :  max(cpu_time)    wall_clock(cpu1)
  | Time for this force evaluation             :       88.488 s          88.857 s

------------------------------------------------------------
  Geometry optimization: Attempting to predict improved coordinates.

  +-------------------------------------------------------------------+
  | Generalized derivatives on lattice vectors [eV/A]                 |
  +-------------------------------------------------------------------+
  |lattice_vector       0.00272286      -0.00686143       0.00069254  |
  |lattice_vector      -0.00717426      -0.00129651      -0.00007490  |
  |lattice_vector       0.00002632      -0.00000234       0.00129739  |
  +-------------------------------------------------------------------+
  | Forces on lattice vectors cleaned from atomic contributions [eV/A]|
  +-------------------------------------------------------------------+
  |lattice_vector      -0.00339503       0.00722144      -0.00170082  |
  |lattice_vector       0.00784640       0.00093669       0.00108435  |
  |lattice_vector      -0.00000016       0.00000030      -0.00118292  |
  +-------------------------------------------------------------------+
  | Projected forces for shape relaxation  [eV/A]                     |
  +-------------------------------------------------------------------+
  |lattice_vector      -0.00339503       0.00000000       0.00000000  |
  |lattice_vector       0.00155600      -0.00269508      -0.00000000  |
  |lattice_vector       0.00000000      -0.00000000      -0.00118292  |
  +-------------------------------------------------------------------+
  Removing unitary transformations (pure translations, rotations) from forces on atoms.
  Atomic forces before filtering:
  | Net force on center of mass :  -0.261337E-18  0.000000E+00  0.696899E-18 eV/A
  Removing unitary transformations (rotations) from forces on lattice.
  Lattice forces before filtering:
  | Net torque relative to origin:  -0.102358E-34  0.000000E+00 -0.737566E-18 eV
  Atomic forces after filtering:
  | Net force on center of mass :   0.261337E-18  0.000000E+00  0.696899E-18 eV/A
  Lattice forces after filtering:
  | Net torque relative to origin:  -0.102358E-34  0.000000E+00 -0.737566E-18 eV
  || Forces on lattice vectors || =   0.339503E-02 eV/A.
  Net remaining forces (excluding translations, rotations) in present geometry:
  Maximum force component is  0.588981E-02 eV/A.
  Present geometry is converged.

------------------------------------------------------------
  Final atomic structure:
                         x [A]             y [A]             z [A]
  lattice_vector         3.60571012       -0.00000000       -0.00000000
  lattice_vector        -1.80287671        3.12267406        0.00000000
  lattice_vector        -0.00000000        0.00000000       99.99838403

            atom        -0.00010304       -0.00080454      -12.81205816  Hf
            atom        -1.80264812        1.04166008       -5.47727491  S
            atom         1.80264726       -1.04167824      -14.27623947  S
            atom         0.00010318        0.00083785       -6.94104348  Hf
            atom        -1.80284553        1.04003837      -11.34787794  S
            atom         1.80284625       -1.04005351       -8.40562597  S

  Fractional coordinates:
                         L1                L2                L3
       atom_frac        -0.00015740       -0.00025765       -0.12812265  Hf
       atom_frac        -0.33315085        0.33357951       -0.05477363  S
       atom_frac         0.33314770       -0.33358532       -0.14276470  S
       atom_frac         0.00016277        0.00026831       -0.06941156  Hf
       atom_frac        -0.33346527        0.33306018       -0.11348061  S
       atom_frac         0.33346305       -0.33306502       -0.08405762  S
------------------------------------------------------------

------------------------------------------------------------------------------
  Final output of selected total energy values:

  The following output summarizes some interesting total energy values
  at the end of a run (AFTER all relaxation, molecular dynamics, etc.).

  | Total energy of the DFT / Hartree-Fock s.c.f. calculation      :        -887758.159601902 eV
  | Final zero-broadening corrected energy (caution - metals only) :        -887758.159601902 eV
  | For reference only, the value of 1 Hartree used in FHI-aims is :             27.211384500 eV

  Before relying on these values, please be sure to understand exactly which
  total energy value is referred to by a given number. Different objects may
  all carry the same name 'total energy'. Definitions:

  Total energy of the DFT / Hartree-Fock s.c.f. calculation:
  | Note that this energy does not include ANY quantities calculated after the
  | s.c.f. cycle, in particular not ANY RPA, MP2, etc. many-body perturbation terms.

  Final zero-broadening corrected energy:
  | For metallic systems only, a broadening of the occupation numbers at the Fermi
  | level can be extrapolated back to zero broadening by an electron-gas inspired
  | formula. For all systems that are not real metals, this value can be
  | meaningless and should be avoided.

------------------------------------------------------------------------------
  Methods described in the following list of references were used in this FHI-aims run.
  If you publish the results, please make sure to cite these reference if they apply.
  FHI-aims is an academic code, and for our developers (often, Ph.D. students
  and postdocs), scientific credit in the community is essential.
  Thank you for helping us!

  For any use of FHI-aims, please cite:

    Volker Blum, Ralf Gehrke, Felix Hanke, Paula Havu, Ville Havu,
    Xinguo Ren, Karsten Reuter, and Matthias Scheffler
    'Ab initio molecular simulations with numeric atom-centered orbitals'
    Computer Physics Communications 180, 2175-2196 (2009)
    http://dx.doi.org/10.1016/j.cpc.2009.06.022


  For the analytical stress tensor used in your run, please cite:

    Franz Knuth, Christian Carbogno, Viktor Atalla, Volker Blum, Matthias Scheffler
    'All-electron formalism for total energy strain derivatives and
    stress tensor components for numeric atom-centered orbitals'
    Computer Physics Communications 190, 33-50 (2015).
    http://dx.doi.org/10.1016/j.cpc.2015.01.003


  The scalable eigensolver library ELPA was used in your run.
  ELPA is essential especially for large systems on hundreds or thousands of CPUs.
  For ELPA, please cite:

    Andreas Marek, Volker Blum, Rainer Johanni, Ville Havu, Bruno Lang,
    Thomas Auckenthaler, Alexander Heinecke, Hans-Joachim Bungartz, and Hermann Lederer,
    'The ELPA Library - Scalable Parallel Eigenvalue Solutions
    for Electronic Structure Theory and Computational Science'
    The Journal of Physics: Condensed Matter 26, 213201 (2014).
    http://dx.doi.org/10.1088/0953-8984/26/21/213201


  The ELSI infrastructure was used in your run to solve the Kohn-Sham electronic structure.
  Please check out http://elsi-interchange.org to learn more.
  If scalability is important for your project, please acknowledge ELSI by citing:

    V. W-z. Yu, F. Corsetti, A. Garcia, W. P. Huhn, M. Jacquelin, W. Jia,
    B. Lange, L. Lin, J. Lu, W. Mi, A. Seifitokaldani, A. Vazquez-Mayagoitia,
    C. Yang, H. Yang, and V. Blum
    'ELSI: A unified software interface for Kohn-Sham electronic structure solvers'
    Computer Physics Communications 222, 267-285 (2018).
    http://dx.doi.org/10.1016/j.cpc.2017.09.007


  For the real-space grid partitioning and parallelization used in this calculation, please cite:

    Ville Havu, Volker Blum, Paula Havu, and Matthias Scheffler,
    'Efficient O(N) integration for all-electron electronic structure calculation'
    'using numerically tabulated basis functions'
    Journal of Computational Physics 228, 8367-8379 (2009).
    http://dx.doi.org/10.1016/j.jcp.2009.08.008

  Of course, there are many other important community references, e.g., those cited in the
  above references. Our list is limited to references that describe implementations in the
  FHI-aims code. The reason is purely practical (length of this list) - please credit others as well.

------------------------------------------------------------
          Leaving FHI-aims.
          Date     :  20191127, Time     :  204117.867

          Computational steps:
          | Number of self-consistency cycles          :          218
          | Number of SCF (re)initializations          :           13
          | Number of relaxation steps                 :           12

          Detailed time accounting                     :  max(cpu_time)    wall_clock(cpu1)
          | Total time                                 :     1250.012 s        1249.124 s
          | Preparation time                           :        0.624 s           0.620 s
          | Boundary condition initalization           :       10.636 s          10.586 s
          | Grid partitioning                          :        1.484 s           1.467 s
          | Preloading free-atom quantities on grid    :        1.020 s           1.003 s
          | Free-atom superposition energy             :        0.148 s           0.128 s
          | Total time for integrations                :      190.192 s         189.588 s
          | Total time for solution of K.-S. equations :       60.828 s          60.459 s
          | Total time for EV reorthonormalization     :        0.616 s           0.439 s
          | Total time for density & force components  :      901.428 s         900.312 s
          | Total time for mixing & preconditioning    :        8.460 s           8.065 s
          | Total time for Hartree multipole update    :        0.884 s           0.571 s
          | Total time for Hartree multipole sum       :       59.540 s          59.003 s
          | Total time for total energy evaluation     :        0.876 s           0.157 s
          | Total time for scaled ZORA corrections     :        0.000 s           0.000 s
          | Total time for vdW correction              :       15.540 s          15.492 s

          Partial memory accounting:
          | Residual value for overall tracked memory usage across tasks :           0.000 MB (should be 0.000 MB)
          | Peak values for overall tracked memory usage (after allocating wave_pulay):
          |   Minimum:      123.035 MB (on task 31)
          |   Maximum:      132.248 MB (on task 12)
          |   Average:      127.571 MB
          | Largest tracked array allocation (density_matrix_con):
          |   Minimum:       33.358 MB (on task 10)
          |   Maximum:       38.019 MB (on task  3)
          |   Average:       35.838 MB
          Note:  These values currently only include a subset of arrays which are explicitly tracked.
          The "true" memory usage will be greater.

          Have a nice day.
------------------------------------------------------------
