  MPI-parallelism will be employed.
------------------------------------------------------------
          Invoking FHI-aims ...
          Version 171221_1
          Compiled on 2018/11/06 at 11:18:49 on host headnode.

          When using FHI-aims, please cite the following reference:

          Volker Blum, Ralf Gehrke, Felix Hanke, Paula Havu,
          Ville Havu, Xinguo Ren, Karsten Reuter, and Matthias Scheffler,
          'Ab Initio Molecular Simulations with Numeric Atom-Centered Orbitals',
          Computer Physics Communications 180, 2175-2196 (2009)

          For any questions about FHI-aims, please visit the aimsclub website
          with its forums and wiki. Contributions to both the forums and the
          wiki are warmly encouraged - they are for you, and everyone is welcome there.

------------------------------------------------------------



  Date     :  20191127, Time     :  215209.388
  Time zero on CPU 1             :   0.472000000000000E+00  s.
  Internal wall clock time zero  :           344123529.388  s.

  FHI-aims created a unique identifier for this run for later identification
  aims_uuid : 6753BC44-6BB5-4111-A9FF-938DFF732490

  Using       80 parallel tasks.
  Task        0 on host t030 reporting.
  Task        1 on host t030 reporting.
  Task        2 on host t030 reporting.
  Task        3 on host t030 reporting.
  Task        4 on host t030 reporting.
  Task        5 on host t030 reporting.
  Task        6 on host t030 reporting.
  Task        7 on host t030 reporting.
  Task        8 on host t030 reporting.
  Task        9 on host t030 reporting.
  Task       10 on host t030 reporting.
  Task       11 on host t030 reporting.
  Task       12 on host t030 reporting.
  Task       13 on host t030 reporting.
  Task       14 on host t030 reporting.
  Task       15 on host t030 reporting.
  Task       16 on host t030 reporting.
  Task       17 on host t030 reporting.
  Task       18 on host t030 reporting.
  Task       19 on host t030 reporting.
  Task       20 on host t024 reporting.
  Task       21 on host t024 reporting.
  Task       22 on host t024 reporting.
  Task       23 on host t024 reporting.
  Task       24 on host t024 reporting.
  Task       25 on host t024 reporting.
  Task       26 on host t024 reporting.
  Task       27 on host t024 reporting.
  Task       28 on host t024 reporting.
  Task       29 on host t024 reporting.
  Task       30 on host t024 reporting.
  Task       31 on host t024 reporting.
  Task       32 on host t024 reporting.
  Task       33 on host t024 reporting.
  Task       34 on host t024 reporting.
  Task       35 on host t024 reporting.
  Task       36 on host t024 reporting.
  Task       37 on host t024 reporting.
  Task       38 on host t024 reporting.
  Task       39 on host t024 reporting.
  Task       40 on host t019 reporting.
  Task       41 on host t019 reporting.
  Task       42 on host t019 reporting.
  Task       43 on host t019 reporting.
  Task       44 on host t019 reporting.
  Task       45 on host t019 reporting.
  Task       46 on host t019 reporting.
  Task       47 on host t019 reporting.
  Task       48 on host t019 reporting.
  Task       49 on host t019 reporting.
  Task       50 on host t019 reporting.
  Task       51 on host t019 reporting.
  Task       52 on host t019 reporting.
  Task       53 on host t019 reporting.
  Task       54 on host t019 reporting.
  Task       55 on host t019 reporting.
  Task       56 on host t019 reporting.
  Task       57 on host t019 reporting.
  Task       58 on host t019 reporting.
  Task       59 on host t019 reporting.
  Task       60 on host t018 reporting.
  Task       61 on host t018 reporting.
  Task       62 on host t018 reporting.
  Task       63 on host t018 reporting.
  Task       64 on host t018 reporting.
  Task       65 on host t018 reporting.
  Task       66 on host t018 reporting.
  Task       67 on host t018 reporting.
  Task       68 on host t018 reporting.
  Task       69 on host t018 reporting.
  Task       70 on host t018 reporting.
  Task       71 on host t018 reporting.
  Task       72 on host t018 reporting.
  Task       73 on host t018 reporting.
  Task       74 on host t018 reporting.
  Task       75 on host t018 reporting.
  Task       76 on host t018 reporting.
  Task       77 on host t018 reporting.
  Task       78 on host t018 reporting.
  Task       79 on host t018 reporting.

  Performing system and environment tests:
  | Environment variable OMP_NUM_THREADS correctly set to 1.
  | Stacksize not measured: no C compiler
  | Checking for scalapack...
  | Testing pdtran()...
  | All pdtran() tests passed.

  Obtaining array dimensions for all initial allocations:
  
  -----------------------------------------------------------------------
  Parsing control.in (first pass over file, find array dimensions only).
  The contents of control.in will be repeated verbatim below
  unless switched off by setting 'verbatim_writeout .false.' .
  in the first line of control.in .
  -----------------------------------------------------------------------
  
  #===============================================================================
  # FHI-aims file: ./control.in
  # Created using the Atomic Simulation Environment (ASE)
  # Wed Nov 27 20:14:06 2019
  #
  # List of parameters used to initialize the calculator:
  #     relativistic : ('atomic_zora', 'scalar')
  #     spin : none
  #     adjust_scf : once 2
  #     k_grid : [18, 18, 1]
  #     species_dir : /chemsoft/FHI-aims/stable/species_defaults/tight
  #     xc : pbe
  #===============================================================================
  relativistic                       atomic_zora scalar
  spin                               none
  adjust_scf                         once 2
  ### geometry optimisation section
  relax_geometry    bfgs    1E-2
  relax_unit_cell       fixed_angles
  k_grid                             18 18 1
  xc                                 pbe
  many_body_dispersion
  #===============================================================================
  
  ################################################################################
  #
  #  FHI-aims code project
  # Volker Blum, Fritz Haber Institute Berlin, 2009
  #
  #  Suggested "tight" defaults for Mo atom (to be pasted into control.in file)
  #
  ################################################################################
    species        Mo
  #     global species definitions
      nucleus             42
      mass                95.94
  #
      l_hartree           6
  #
      cut_pot             4.0  2.0  1.0
      basis_dep_cutoff    1e-4
  #
      radial_base         59 7.0
      radial_multiplier   2
      angular_grids specified
        division   0.3117   50
        division   0.6750  110
        division   1.0351  194
        division   1.2073  302
        division   1.6402  434
  #      division   1.9185  590
  #      division   2.0237  770
  #      division   2.0980  974
  #      division   2.7972 1202
  #      outer_grid  974
        outer_grid  434
  ################################################################################
  #
  #  Definition of "minimal" basis
  #
  ################################################################################
  #     valence basis states
      valence      5  s   1.
      valence      4  p   6.
      valence      4  d   5.
  #     ion occupancy
      ion_occ     5  s   0.
      ion_occ     4  p   6.
      ion_occ     4  d   4.
  ################################################################################
  #
  #  Suggested additional basis functions. For production calculations,
  #  uncomment them one after another (the most important basis functions are
  #  listed first).
  #
  #  Constructed for dimers: 1.675 A, 1.9 A, 2.375 A, 3.00 A, 4.00 A
  #
  ################################################################################
  #  "First tier"  - max. impr. -711.23  meV, min. impr. -21.07 meV
       hydro 4 f 8.4
       hydro 3 d 2.8
       ionic 5 p auto
       hydro 5 g 12
       ionic 5 s auto
  #  "Second tier" - max. impr. -39.38  meV, min. impr. -2.68 meV
       hydro 4 f 12.4
       hydro 3 d 3.3
       hydro 6 h 17.2
       hydro 4 f 7.6
       hydro 3 p 3.0
       hydro 1 s 0.65
  #  "Third tier"  - max. impr. -5.50 meV, min. impr. -0.47 meV
  #     hydro 4 f 29.2
  #     hydro 5 g 11.2
  #     hydro 3 d 6.8
  #     hydro 6 h 14.8
  #     hydro 2 p 2.3
  #     hydro 4 s 3.8
  #  "Fourth tier"  - max. impr. -0.58 meV, min. impr. -0.19 meV
  #     hydro 5 f 6.8
  #     hydro 5 d 14.8
  #     hydro 6 s 7.8
  #     hydro 5 g 20.8
  #     hydro 5 d 10.4
  #     hydro 5 p 9.8
  #  Further functions - -0.17 meV and below
  #     hydro 5 d 3.2
  ################################################################################
  #
  #  FHI-aims code project
  # Volker Blum, Fritz Haber Institute Berlin, 2009
  #
  #  Suggested "tight" defaults for S atom (to be pasted into control.in file)
  #
  #  Revised Jan 04, 2011, following tests (SiC) done by Lydia Nemec:
  #     d and g functions of tier 2 now enabled by default.
  #
  ################################################################################
    species        S
  #     global species definitions
      nucleus             16
      mass                32.065
  #
      l_hartree           6
  #
      cut_pot             4.0          2.0  1.0
      basis_dep_cutoff    1e-4
  #
      radial_base         44 7.0
      radial_multiplier   2
      angular_grids       specified
        division   0.4665  110
        division   0.5810  194
        division   0.7139  302
        division   0.8274  434
  #      division   0.9105  590
  #      division   1.0975  770
  #      division   1.2028  974
  #      outer_grid  974
        outer_grid  434
  ################################################################################
  #
  #  Definition of "minimal" basis
  #
  ################################################################################
  #     valence basis states
      valence      3  s   2.
      valence      3  p   4.
  #     ion occupancy
      ion_occ      3  s   1.
      ion_occ      3  p   3.
  ################################################################################
  #
  #  Suggested additional basis functions. For production calculations,
  #  uncomment them one after another (the most important basis functions are
  #  listed first).
  #
  #  Constructed for dimers: 1.6 A, 1.9 A, 2.5 A, 3.25 A, 4.0 A
  #
  ################################################################################
  #  "First tier" - improvements: -652.81 meV to -45.53 meV
       ionic 3 d auto
       hydro 2 p 1.8
       hydro 4 f 7
       ionic 3 s auto
  #  "Second tier" - improvements: -30.20 meV to -1.74 meV
       hydro 4 d 6.2
       hydro 5 g 10.8
       hydro 4 p 4.9
       hydro 5 f 10
       hydro 1 s 0.8
  #  "Third tier" - improvements: -1.04 meV to -0.20 meV
  #     hydro 3 d 3.9
  #     hydro 3 d 2.7
  #     hydro 5 g 12
  #     hydro 4 p 10.4
  #     hydro 5 f 12.4
  #     hydro 2 s 1.9
  #  "Fourth tier" - improvements: -0.35 meV to -0.06 meV
  #     hydro 4 d 10.4
  #     hydro 4 p 7.2
  #     hydro 4 d 10
  #     hydro 5 g 19.2
  #     hydro 4 s 12
  #
  ################################################################################
  #
  # For methods that use the localized form of the "resolution of identity" for
  # the two-electron Coulomb operator (RI_method LVL), particularly Hartree-Fock and
  # hybrid density functional calculations, the highest accuracy can be obtained by
  # uncommenting the line beginning with "for_aux"  below, thus adding an extra g radial
  # function to the construction of the product basis set for the expansion.
  # See Ref. New J. Phys. 17, 093020 (2015) for more information, particularly Figs. 1 and 6.
  #
  ################################################################################
  #
  # for_aux hydro 5 g 6.0
  
  -----------------------------------------------------------------------
  Completed first pass over input file control.in .
  -----------------------------------------------------------------------
  
  
  -----------------------------------------------------------------------
  Parsing geometry.in (first pass over file, find array dimensions only).
  The contents of geometry.in will be repeated verbatim below
  unless switched off by setting 'verbatim_writeout .false.' .
  in the first line of geometry.in .
  -----------------------------------------------------------------------
  
  #=======================================================
  # FHI-aims file: ./geometry.in
  # Created using the Atomic Simulation Environment (ASE)
  # Wed Nov 27 20:14:06 2019
  #=======================================================
  lattice_vector 3.1600000000000001 0.0000000000000000 0.0000000000000000
  lattice_vector -1.5800000000000001 2.7366402800000000 0.0000000000000000
  lattice_vector 0.0000000000000000 0.0000000000000000 100.0000000000000000
  atom -0.0000000000000000 1.8244268500000000 3.0750000000000002 Mo
  atom 1.5800000000000001 0.9122134300000000 9.2249999999999996 Mo
  atom -0.0000000000000000 1.8244268500000000 10.8055500000000002 S
  atom 1.5800000000000001 0.9122134300000000 4.6555499999999999 S
  atom 1.5800000000000001 0.9122134300000000 1.4944500000000001 S
  atom -0.0000000000000000 1.8244268500000000 7.6444500000000000 S
  
  -----------------------------------------------------------------------
  Completed first pass over input file geometry.in .
  -----------------------------------------------------------------------
  

  Basic array size parameters:
  | Number of species                 :        2
  | Number of atoms                   :        6
  | Number of lattice vectors         :        3
  | Max. basis fn. angular momentum   :        5
  | Max. atomic/ionic basis occupied n:        5
  | Max. number of basis fn. types    :        3
  | Max. radial fns per species/type  :       10
  | Max. logarithmic grid size        :     1436
  | Max. radial integration grid size :      119
  | Max. angular integration grid size:      434
  | Max. angular grid division number :        8
  | Radial grid for Hartree potential :     1436
  | Number of spin channels           :        1

------------------------------------------------------------
          Reading file control.in.
------------------------------------------------------------
  Scalar relativistic treatment of kinetic energy: on-site free-atom approximation to ZORA.
  Spin treatment: No spin polarisation.
  S.C.F. convergence parameters will be adjusted in iteration number     2 of the first full s.c.f. cycle only.
  Geometry relaxation: Modified BFGS - TRM (trust radius method, i.e., trusted quadratic extrapolation).
  Convergence accuracy for geometry relaxation: Maximum force <   0.100000E-01 eV/A.
  Found k-point grid:        18        18         1
  XC: Using PBE gradient-corrected functionals.
  Using the default MBD implementation with analytical forces
 
  Reading configuration options for species Mo                  .
  | Found nuclear charge :  42.0000
  | Found atomic mass :    95.9400000000000      amu
  | Found l_max for Hartree potential  :   6
  | Found cutoff potl. onset [A], width [A], scale factor :    4.00000    2.00000    1.00000
  | Threshold for basis-dependent cutoff potential is   0.100000E-03
  | Found data for basic radial integration grid :    59 points, outermost radius =    7.000 A
  | Found multiplier for basic radial grid :   2
  | Found angular grid specification: user-specified.
  | Specified grid contains     6 separate shells.
  | Check grid settings after all constraints further below.
  | Found free-atom valence shell :  5 s   1.000
  | Found free-atom valence shell :  4 p   6.000
  | Found free-atom valence shell :  4 d   5.000
  | Found free-ion valence shell :  5 s   0.000
  | Found free-ion valence shell :  4 p   6.000
  | Found free-ion valence shell :  4 d   4.000
  | Found hydrogenic basis function :  4 f   8.400
  | Found hydrogenic basis function :  3 d   2.800
  | Found ionic basis function :  5 p , default cutoff radius.
  | Found hydrogenic basis function :  5 g  12.000
  | Found ionic basis function :  5 s , default cutoff radius.
  | Found hydrogenic basis function :  4 f  12.400
  | Found hydrogenic basis function :  3 d   3.300
  | Found hydrogenic basis function :  6 h  17.200
  | Found hydrogenic basis function :  4 f   7.600
  | Found hydrogenic basis function :  3 p   3.000
  | Found hydrogenic basis function :  1 s   0.650
  Species Mo                  : Missing cutoff potential type.
  Defaulting to exp(1/x)/(1-x)^2 type cutoff potential.
  Species Mo: No 'logarithmic' tag. Using default grid for free atom:
  | Default logarithmic grid data [bohr] : 0.1000E-03 0.1000E+03 0.1012E+01
  | Will include ionic basis functions of  2.0-fold positive Mo                   ion.
  Species Mo: On-site basis accuracy parameter (for Gram-Schmidt orthonormalisation) not specified.
  Using default value basis_acc =  0.1000000E-03.
  Species Mo                  : Using default innermost maximum threshold i_radial=  2 for radial functions.
  Species Mo                  : Default cutoff onset for free atom density etc. : 0.40000000E+01 AA.
  Species Mo                  : Basic radial grid will be enhanced according to radial_multiplier =   2, to contain   119 grid points.
 
  Reading configuration options for species S                   .
  | Found nuclear charge :  16.0000
  | Found atomic mass :    32.0650000000000      amu
  | Found l_max for Hartree potential  :   6
  | Found cutoff potl. onset [A], width [A], scale factor :    4.00000    2.00000    1.00000
  | Threshold for basis-dependent cutoff potential is   0.100000E-03
  | Found data for basic radial integration grid :    44 points, outermost radius =    7.000 A
  | Found multiplier for basic radial grid :   2
  | Found angular grid specification: user-specified.
  | Specified grid contains     5 separate shells.
  | Check grid settings after all constraints further below.
  | Found free-atom valence shell :  3 s   2.000
  | Found free-atom valence shell :  3 p   4.000
  | Found free-ion valence shell :  3 s   1.000
  | Found free-ion valence shell :  3 p   3.000
  | Found ionic basis function :  3 d , default cutoff radius.
  | Found hydrogenic basis function :  2 p   1.800
  | Found hydrogenic basis function :  4 f   7.000
  | Found ionic basis function :  3 s , default cutoff radius.
  | Found hydrogenic basis function :  4 d   6.200
  | Found hydrogenic basis function :  5 g  10.800
  | Found hydrogenic basis function :  4 p   4.900
  | Found hydrogenic basis function :  5 f  10.000
  | Found hydrogenic basis function :  1 s   0.800
  Species S                   : Missing cutoff potential type.
  Defaulting to exp(1/x)/(1-x)^2 type cutoff potential.
  Species S : No 'logarithmic' tag. Using default grid for free atom:
  | Default logarithmic grid data [bohr] : 0.1000E-03 0.1000E+03 0.1012E+01
  | Will include ionic basis functions of  2.0-fold positive S                    ion.
  Species S : On-site basis accuracy parameter (for Gram-Schmidt orthonormalisation) not specified.
  Using default value basis_acc =  0.1000000E-03.
  Species S                   : Using default innermost maximum threshold i_radial=  2 for radial functions.
  Species S                   : Default cutoff onset for free atom density etc. : 0.40000000E+01 AA.
  Species S                   : Basic radial grid will be enhanced according to radial_multiplier =   2, to contain    89 grid points.
  | MBD: Using the same k-grid sampling as DFT
 
  Finished reading input file 'control.in'. Consistency checks are next.
 
  MPI_IN_PLACE appears to work with this MPI implementation.
  | Keeping use_mpi_in_place .true. (see manual).
  Target number of points in a grid batch is not set. Defaulting to  100
  Method for grid partitioning is not set. Defaulting to parallel hash+maxmin partitioning.
  Batch size limit is not set. Defaulting to    200
  By default, will store active basis functions for each batch.
  If in need of memory, prune_basis_once .false. can be used to disable this option.
  communication_type for Hartree potential was not specified.
  Defaulting to calc_hartree .
  Defaulting to Pulay charge density mixer.
  Pulay mixer: Number of relevant iterations not set.
  Defaulting to    8 iterations.
  Pulay mixer: Number of initial linear mixing iterations not set.
  Defaulting to    0 iterations.
  Work space size for distributed Hartree potential not set.
  Defaulting to   0.200000E+03 MB.
  Mixing parameter for charge density mixing has not been set.
  Using default: charge_mix_param =     0.0500.
  The mixing parameter will be adjusted in iteration number     2 of the first full s.c.f. cycle only.
  Algorithm-dependent basis array size parameters:
  | n_max_pulay                         :        8
 * Notice: The s.c.f. convergence criterion sc_accuracy_rho was not provided.
 * We used to stop in this case, and ask the user to provide reasonable
 * scf convergence criteria. However, this led some users to employ criteria
 * that led to extremely long run times, e.g., for simple relaxation.
 * We now preset a default value for sc_accuracy_rho if it is not set.
 * You may still wish to check if this setting is too tight or too loose for your needs.
 * Based on n_atoms, FHI-aims chose sc_accuracy_rho =  0.100000E-05 .
  Maximum number of self-consistency iterations not provided.
  Presetting  1000 iterations.
  Presetting      1001 iterations before the initial mixing cycle
  is restarted anyway using the sc_init_iter criterion / keyword.
  Presetting a factor      1.000 between actual scf density residual
  and density convergence criterion sc_accuracy_rho below which sc_init_iter
  takes no effect.
 * No s.c.f. convergence criteria (sc_accuracy_*) were provided in control.in.
 * The run will proceed with a reasonable default guess, but please check whether.
 * the s.c.f. cycles seem to take too much or too little time.
  No maximum number of relaxation steps, defaulting to     1000
  Default initial Hessian is Lindh matrix (thres = 15.00) plus  0.200000E+01 eV/A^2 times unity.
  No maximum energy tolerance for TRM/BFGS moves, defaulting to   0.200000E-03
  No harmonic length scale. Defaulting to   0.250000E-01 A.
  No trust radius initializer. Defaulting to   0.200000E+00 A.
  Unit cell relaxation: Restricted relaxation with fixed angles between lattice vectors.
  Unit cell relaxation: Analytical stress will be used.
  Analytical stress will be computed.
  Analytical stress calculation: Only the upper triangle is calculated.
                                 Final output is symmetrized.
  Analytical stress calculation: scf convergence accuracy of stress not set.
                                 Analytical stress self-consistency will not be checked explicitly.
                                 Be sure to set other criteria like sc_accuracy_rho tight enough.
  Force calculation: scf convergence accuracy of forces not set.
  Defaulting to 'sc_accuracy_forces not_checked'.
  Handling of forces: Unphysical translation and rotation will be removed from forces.
  No accuracy limit for integral partition fn. given. Defaulting to  0.1000E-14.
  No threshold value for u(r) in integrations given. Defaulting to  0.1000E-05.
  No occupation type (smearing scheme) given. Defaulting to Gaussian broadening, width =  0.1000E-01 eV.
  The width will be adjusted in iteration number     2 of the first full s.c.f. cycle only.
  S.C.F. convergence parameters will be adjusted in iteration number     2 of the first full s.c.f. cycle only.
  No accuracy for occupation numbers given. Defaulting to  0.1000E-12.
  No threshold value for occupation numbers given. Defaulting to  0.0000E+00.
  No accuracy for fermi level given. Defaulting to  0.1000E-19.
  Maximum # of iterations to find E_F not set. Defaulting to  200.
  Preferred method for the eigenvalue solver ('KS_method') not specified in 'control.in'.
  Defaulting to serial version, 'lapack_fast', since more k-points than CPUs available.
  Will not use alltoall communication since running on < 1024 CPUs.
  Threshold for basis singularities not set.
  Default threshold for basis singularities:  0.1000E-04
  partition_type (choice of integration weights) for integrals was not specified.
  | Using a version of the partition function of Stratmann and coworkers ('stratmann_smoother').
  | At each grid point, the set of atoms used to build the partition table is smoothly restricted to
  | only those atoms whose free-atom density would be non-zero at that grid point.
  Partitioning for Hartree potential was not defined. Using partition_type for integrals.
  | Adjusted default value of keyword multip_moments_threshold to:       0.10000000E-11
  | This value may affect high angular momentum components of the Hartree potential in periodic systems.
  Angular momentum expansion for Kerker preconditioner not set explicitly.
  | Using default value of   0
  No explicit requirement for turning off preconditioner.
  | By default, it will be turned off when the charge convergence reaches
  | sc_accuracy_rho  =   0.100000E-05
  No special mixing parameter while Kerker preconditioner is on.
  Using default: charge_mix_param =     0.0500.
  No q(lm)/r^(l+1) cutoff set for long-range Hartree potential.
  | Using default value of  0.100000E-09 .
  | Verify using the multipole_threshold keyword.
  Defaulting to new monopole extrapolation.
  Density update method: automatic selection selected.
  Using density matrix based charge density update.
  Using density matrix based charge density update.
  Using packed matrix style: index .
  Geometry relaxation: A file "geometry.in.next_step" is written out by default after each step.
  | This file contains the geometry of the current relaxation step as well as
  | the current Hessian matrix needed to restart the relaxation algorithm.
  | If you do not want part or all of this information, use the keywords
  | "write_restart_geometry" or "hessian_to_restart_geometry" to switch the output off.
  Defaulting to use time-reversal symmetry for k-point grid.
------------------------------------------------------------


------------------------------------------------------------
          Reading geometry description geometry.in.
------------------------------------------------------------
  Input structure read successfully.
  The structure contains        6 atoms,  and a total of        148.000 electrons.

  Input geometry:
  | Unit cell:
  |        3.16000000        0.00000000        0.00000000
  |       -1.58000000        2.73664028        0.00000000
  |        0.00000000        0.00000000      100.00000000
  | Atomic structure:
  |       Atom                x [A]            y [A]            z [A]
  |    1: Species Mo            0.00000000        1.82442685        3.07500000
  |    2: Species Mo            1.58000000        0.91221343        9.22500000
  |    3: Species S             0.00000000        1.82442685       10.80555000
  |    4: Species S             1.58000000        0.91221343        4.65555000
  |    5: Species S             1.58000000        0.91221343        1.49445000
  |    6: Species S             0.00000000        1.82442685        7.64445000

  Lattice parameters for 3D lattice (in Angstroms) :     3.160000    3.160000  100.000000
  Angle(s) between unit vectors (in degrees)      :    90.000000   90.000000  120.000000

  |

  | The smallest distance between any two atoms is         2.41384996 AA.
  |
  | The first atom of this pair is atom number                      6 .
  | The second atom of this pair is atom number                     2 .
  | Wigner-Seitz cell of the first atom image          -1     1     0 .
  | (The Wigner-Seitz cell of the second atom is 0 0 0  by definition.)

  Quantities derived from the lattice vectors:
  | Reciprocal lattice vector 1:  1.988350  1.147974  0.000000
  | Reciprocal lattice vector 2: -0.000000  2.295949  0.000000
  | Reciprocal lattice vector 3:  0.000000  0.000000  0.062832
  | Unit cell volume                               :   0.864778E+03  A^3

  Range separation radius for Ewald summation (hartree_convergence_parameter):      5.00000000 bohr.

  Fractional coordinates:
                         L1                L2                L3
       atom_frac         0.33333333        0.66666667        0.03075000  Mo
       atom_frac         0.66666667        0.33333333        0.09225000  Mo
       atom_frac         0.33333333        0.66666667        0.10805550  S
       atom_frac         0.66666667        0.33333333        0.04655550  S
       atom_frac         0.66666667        0.33333333        0.01494450  S
       atom_frac         0.33333333        0.66666667        0.07644450  S

  Number of empty states per atom not set in control.in - providing a guess from actual geometry.
  | Total number of empty states used during s.c.f. cycle:       23
  If you use a very high smearing, use empty_states (per atom!) in control.in to increase this value.

  Structure-dependent array size parameters: 
  | Maximum number of distinct radial functions  :       35
  | Maximum number of basis functions            :      366
  | Number of Kohn-Sham states (occupied + empty):       97
------------------------------------------------------------

------------------------------------------------------------
          Preparing all fixed parts of the calculation.
------------------------------------------------------------
  Determining machine precision:
    2.225073858507201E-308
  Setting up grids for atomic and cluster calculations.

  Creating wave function, potential, and density for free atoms.

  Species: Mo

  List of occupied orbitals and eigenvalues:
    n    l              occ      energy [Ha]    energy [eV]
    1    0           2.0000      -745.344654    -20281.8600
    2    0           2.0000      -103.288246     -2810.6162
    3    0           2.0000       -17.516687      -476.6533
    4    0           2.0000        -2.358559       -64.1796
    5    0           1.0000        -0.145159        -3.9500
    2    1           6.0000       -92.308627     -2511.8455
    3    1           6.0000       -13.936005      -379.2180
    4    1           6.0000        -1.408138       -38.3174
    3    2          10.0000        -8.119011      -220.9295
    4    2           5.0000        -0.132984        -3.6187


  Species: S

  List of occupied orbitals and eigenvalues:
    n    l              occ      energy [Ha]    energy [eV]
    1    0           2.0000       -88.680731     -2413.1255
    2    0           2.0000        -7.781719      -211.7513
    3    0           2.0000        -0.633662       -17.2428
    2    1           6.0000        -5.751976      -156.5192
    3    1           4.0000        -0.257086        -6.9957

  Creating fixed part of basis set: Ionic, confined, hydrogenic.
 
  Mo                   ion:

  List of free ionic orbitals and eigenvalues:
    n    l      energy [Ha]    energy [eV]
    1    0      -746.048685    -20301.0176
    2    0      -103.980912     -2829.4646
    3    0       -18.206601      -495.4268
    4    0        -3.040545       -82.7374
    2    1       -93.001013     -2530.6863
    3    1       -14.625827      -397.9890
    4    1        -2.084855       -56.7318
    3    2        -8.808854      -239.7011
    4    2        -0.765435       -20.8285


  List of ionic basis orbitals and eigenvalues:
    n    l      energy [Ha]    energy [eV]    outer radius [A]
    5    1        -0.465587       -12.6693       5.456393
    5    0        -0.650331       -17.6964       5.390095

 
  Mo                   hydrogenic:
 
  List of hydrogenic basis orbitals: 
    n    l      effective z      eigenvalue [eV]  inner max. [A]     outer max. [A]     outer radius [A]   
    4    3         8.400000       -60.0010           1.009788           1.009788           4.487018
    3    2         2.800000       -11.8048           1.687401           1.687401           5.456393
    5    4        12.000000       -78.3687           1.100005           1.100005           4.432498
    4    3        12.400000      -130.7506           0.682864           0.682864           3.428897
    3    2         3.300000       -16.4532           1.439455           1.439455           5.456393
    6    5        17.200000      -111.8085           1.113535           1.113535           4.169676
    4    3         7.600000       -49.1164           1.113535           1.113535           4.828511
    3    1         3.000000       -13.5316           0.528251           2.102736           5.456393
    1    0         0.650000        -5.7375           0.810333           0.810333           5.456393
 
 
  S                    ion:

  List of free ionic orbitals and eigenvalues:
    n    l      energy [Ha]    energy [eV]
    1    0       -89.703778     -2440.9640
    2    0        -8.775428      -238.7916
    3    0        -1.470343       -40.0101
    2    1        -6.747660      -183.6132
    3    1        -1.048627       -28.5346


  List of ionic basis orbitals and eigenvalues:
    n    l      energy [Ha]    energy [eV]    outer radius [A]
    3    2        -0.495605       -13.4861       5.386362
    3    0        -1.470336       -40.0099       3.967934

 
  S                    hydrogenic:
 
  List of hydrogenic basis orbitals: 
    n    l      effective z      eigenvalue [eV]  inner max. [A]     outer max. [A]     outer radius [A]   
    2    1         1.800000       -11.0118           1.168531           1.168531           5.452614
    4    3         7.000000       -41.6672           1.212182           1.212182           5.066981
    4    2         6.200000       -32.6848           0.582121           1.814567           5.386362
    5    4        10.800000       -63.4785           1.227092           1.227092           4.766538
    4    1         4.900000       -20.2928           0.304525           2.524192           5.452614
    5    3        10.000000       -54.4226           0.641929           1.727969           5.320915
    1    0         0.800000        -8.7059           0.657818           0.657818           5.386362
 

  Adding cutoff potential to free-atom effective potential.
  Creating atomic-like basis functions for current effective potential.

  Species Mo                  :

  List of atomic basis orbitals and eigenvalues:
    n    l      energy [Ha]    energy [eV]    outer radius [A]
    1    0      -745.344654    -20281.8600       0.247552
    2    0      -103.288246     -2810.6162       0.682864
    3    0       -17.516687      -476.6533       1.626637
    4    0        -2.358559       -64.1796       4.220963
    5    0        -0.145159        -3.9500       5.456393
    2    1       -92.308627     -2511.8455       0.699766
    3    1       -13.936005      -379.2180       1.793761
    4    1        -1.408138       -38.3174       4.828511
    3    2        -8.119011      -220.9295       2.181285
    4    2        -0.132984        -3.6187       5.390095


  Species S                   :

  List of atomic basis orbitals and eigenvalues:
    n    l      energy [Ha]    energy [eV]    outer radius [A]
    1    0       -88.680731     -2413.1255       0.682391
    2    0        -7.781719      -211.7513       2.289014
    3    0        -0.633662       -17.2428       5.256262
    2    1        -5.751976      -156.5192       2.555240
    3    1        -0.257086        -6.9957       5.386362

  Assembling full basis from fixed parts.
  | Species Mo :   atomic orbital   1 s accepted.
  | Species Mo :   atomic orbital   2 s accepted.
  | Species Mo :   atomic orbital   3 s accepted.
  | Species Mo :   atomic orbital   4 s accepted.
  | Species Mo :    ionic orbital   5 s accepted.
  | Species Mo :   atomic orbital   5 s accepted.
  | Species Mo :    hydro orbital   1 s accepted.
  | Species Mo :   atomic orbital   2 p accepted.
  | Species Mo :   atomic orbital   3 p accepted.
  | Species Mo :   atomic orbital   4 p accepted.
  | Species Mo :    ionic orbital   5 p accepted.
  | Species Mo :    hydro orbital   3 p accepted.
  | Species Mo :   atomic orbital   3 d accepted.
  | Species Mo :   atomic orbital   4 d accepted.
  | Species Mo :    hydro orbital   3 d accepted.
  | Species Mo :    hydro orbital   3 d accepted.
  | Species Mo :    hydro orbital   4 f accepted.
  | Species Mo :    hydro orbital   4 f accepted.
  | Species Mo :    hydro orbital   4 f accepted.
  | Species Mo :    hydro orbital   5 g accepted.
  | Species Mo :    hydro orbital   6 h accepted.
  | Species S :   atomic orbital   1 s accepted.
  | Species S :   atomic orbital   2 s accepted.
  | Species S :    ionic orbital   3 s accepted.
  | Species S :   atomic orbital   3 s accepted.
  | Species S :    hydro orbital   1 s accepted.
  | Species S :   atomic orbital   2 p accepted.
  | Species S :   atomic orbital   3 p accepted.
  | Species S :    hydro orbital   2 p accepted.
  | Species S :    hydro orbital   4 p accepted.
  | Species S :    ionic orbital   3 d accepted.
  | Species S :    hydro orbital   4 d accepted.
  | Species S :    hydro orbital   4 f accepted.
  | Species S :    hydro orbital   5 f accepted.
  | Species S :    hydro orbital   5 g accepted.
 
  Basis size parameters after reduction:
  | Total number of radial functions:       35
  | Total number of basis functions :      366
 
  Per-task memory consumption for arrays in subroutine allocate_ext:
  |          12.876952MB.
  Testing on-site integration grid accuracy.
  |  Species  Function  <phi|h_atom|phi> (log., in eV)  <phi|h_atom|phi> (rad., in eV)
           1        1             -20281.8599610543             -20281.8584300616
           1        2              -2810.6161812280              -2810.6161551921
           1        3               -476.6533163555               -476.6533136395
           1        4                -64.1796433667                -64.1796426456
           1        5                 -3.3691762756                 -3.3691802887
           1        6                  4.4704608512                  4.4699102345
           1        7                 47.6285199283                 47.6283663304
           1        8              -2511.8455406047              -2511.8455385741
           1        9               -379.2179896350               -379.2179882338
           1       10                -38.3173891619                -38.3173886619
           1       11                  0.2493245095                  0.2492931069
           1       12                 12.9899978429                 12.9896957264
           1       13               -220.9295301098               -220.9295297081
           1       14                 -3.6195697699                 -3.6195754704
           1       15                  7.1428000922                  7.1426882355
           1       16                 20.1860643586                 20.1854440119
           1       17                 39.6800378350                 39.6800378704
           1       18                 41.9987405107                 41.9987406673
           1       19                 51.4938078473                 51.4938137886
           1       20                 50.2449608881                 50.2449608586
           1       21                 84.8920029004                 84.8920028797
           2       22              -2413.1254568977              -2413.1254096663
           2       23               -211.7513411281               -211.7513404762
           2       24                -16.9725280787                -16.9725279206
           2       25                  7.6024436204                  7.6024549059
           2       26                 48.5754986812                 48.5751292874
           2       27               -156.5192206929               -156.5192205451
           2       28                 -6.9959757887                 -6.9959777655
           2       29                  6.8896462808                  6.8895564741
           2       30                 27.2255287135                 27.2252601701
           2       31                  6.0214250550                  6.0214220200
           2       32                 19.6206468977                 19.6206494558
           2       33                 24.7008710786                 24.7008710738
           2       34                 58.2239314521                 58.2239319465
           2       35                 47.5292252001                 47.5292260486

  Preparing densities etc. for the partition functions (integrals / Hartree potential).

  Preparations completed.
  max(cpu_time)          :      0.444 s.
  Wall clock time (cpu1) :      0.441 s.
------------------------------------------------------------

------------------------------------------------------------
          Begin self-consistency loop: Initialization.

          Date     :  20191127, Time     :  215209.906
------------------------------------------------------------

  Initializing index lists of integration centers etc. from given atomic structure:
  Mapping all atomic coordinates to central unit cell.

  Initializing the k-points
          Using symmetry for reducing the k-points
  | k-points reduced from:      324 to      164
  | Number of k-points                             :       164
  The eigenvectors in the calculations are COMPLEX.
  | K-points in task   0:         2
  | K-points in task   1:         3
  | K-points in task   2:         3
  | K-points in task   3:         3
  | K-points in task   4:         3
  | K-points in task   5:         2
  | K-points in task   6:         2
  | K-points in task   7:         2
  | K-points in task   8:         2
  | K-points in task   9:         2
  | K-points in task  10:         2
  | K-points in task  11:         2
  | K-points in task  12:         2
  | K-points in task  13:         2
  | K-points in task  14:         2
  | K-points in task  15:         2
  | K-points in task  16:         2
  | K-points in task  17:         2
  | K-points in task  18:         2
  | K-points in task  19:         2
  | K-points in task  20:         2
  | K-points in task  21:         2
  | K-points in task  22:         2
  | K-points in task  23:         2
  | K-points in task  24:         2
  | K-points in task  25:         2
  | K-points in task  26:         2
  | K-points in task  27:         2
  | K-points in task  28:         2
  | K-points in task  29:         2
  | K-points in task  30:         2
  | K-points in task  31:         2
  | K-points in task  32:         2
  | K-points in task  33:         2
  | K-points in task  34:         2
  | K-points in task  35:         2
  | K-points in task  36:         2
  | K-points in task  37:         2
  | K-points in task  38:         2
  | K-points in task  39:         2
  | K-points in task  40:         2
  | K-points in task  41:         2
  | K-points in task  42:         2
  | K-points in task  43:         2
  | K-points in task  44:         2
  | K-points in task  45:         2
  | K-points in task  46:         2
  | K-points in task  47:         2
  | K-points in task  48:         2
  | K-points in task  49:         2
  | K-points in task  50:         2
  | K-points in task  51:         2
  | K-points in task  52:         2
  | K-points in task  53:         2
  | K-points in task  54:         2
  | K-points in task  55:         2
  | K-points in task  56:         2
  | K-points in task  57:         2
  | K-points in task  58:         2
  | K-points in task  59:         2
  | K-points in task  60:         2
  | K-points in task  61:         2
  | K-points in task  62:         2
  | K-points in task  63:         2
  | K-points in task  64:         2
  | K-points in task  65:         2
  | K-points in task  66:         2
  | K-points in task  67:         2
  | K-points in task  68:         2
  | K-points in task  69:         2
  | K-points in task  70:         2
  | K-points in task  71:         2
  | K-points in task  72:         2
  | K-points in task  73:         2
  | K-points in task  74:         2
  | K-points in task  75:         2
  | K-points in task  76:         2
  | K-points in task  77:         2
  | K-points in task  78:         2
  | K-points in task  79:         2
  | Number of basis functions in the Hamiltonian integrals :      6154
  | Number of basis functions in a single unit cell        :       366
  | Number of centers in hartree potential         :       798
  | Number of centers in hartree multipole         :       414
  | Number of centers in electron density summation:       330
  | Number of centers in basis integrals           :       366
  | Number of centers in integrals                 :       150
  | Number of centers in hamiltonian               :       330
  | Consuming        174 KiB for k_phase.
  | Number of super-cells (origin) [n_cells]                     :         867
  | Number of super-cells (after PM_index) [n_cells]             :          68
  | Number of super-cells in hamiltonian [n_cells_in_hamiltonian]:          68
  | Size of matrix packed + index [n_hamiltonian_matrix_size] :     1753469
  Initializing relaxation algorithms.
  Partitioning the integration grid into batches with parallel hashing+maxmin method.
  | Number of batches:     1758
  | Maximal batch size:     188
  | Minimal batch size:       7
  | Average batch size:      84.184
  | Standard deviation of batch sizes:      25.985

  Integration load balanced across    80 MPI tasks.
  Work distribution over tasks is as follows:
  Task     0 has       1827 integration points.
  Task     1 has       1832 integration points.
  Task     2 has       1911 integration points.
  Task     3 has       1909 integration points.
  Task     4 has       1827 integration points.
  Task     5 has       1822 integration points.
  Task     6 has       1826 integration points.
  Task     7 has       1830 integration points.
  Task     8 has       1851 integration points.
  Task     9 has       1828 integration points.
  Task    10 has       1827 integration points.
  Task    11 has       1875 integration points.
  Task    12 has       1821 integration points.
  Task    13 has       1833 integration points.
  Task    14 has       1823 integration points.
  Task    15 has       1940 integration points.
  Task    16 has       1844 integration points.
  Task    17 has       1908 integration points.
  Task    18 has       1831 integration points.
  Task    19 has       1836 integration points.
  Task    20 has       1828 integration points.
  Task    21 has       1919 integration points.
  Task    22 has       1877 integration points.
  Task    23 has       1835 integration points.
  Task    24 has       1936 integration points.
  Task    25 has       1828 integration points.
  Task    26 has       1904 integration points.
  Task    27 has       1832 integration points.
  Task    28 has       1875 integration points.
  Task    29 has       1824 integration points.
  Task    30 has       1835 integration points.
  Task    31 has       1848 integration points.
  Task    32 has       1834 integration points.
  Task    33 has       1829 integration points.
  Task    34 has       1833 integration points.
  Task    35 has       1837 integration points.
  Task    36 has       1836 integration points.
  Task    37 has       1825 integration points.
  Task    38 has       1929 integration points.
  Task    39 has       1887 integration points.
  Task    40 has       1819 integration points.
  Task    41 has       1821 integration points.
  Task    42 has       1894 integration points.
  Task    43 has       1823 integration points.
  Task    44 has       1830 integration points.
  Task    45 has       1851 integration points.
  Task    46 has       1837 integration points.
  Task    47 has       1821 integration points.
  Task    48 has       1820 integration points.
  Task    49 has       1828 integration points.
  Task    50 has       1836 integration points.
  Task    51 has       1900 integration points.
  Task    52 has       1844 integration points.
  Task    53 has       1848 integration points.
  Task    54 has       1834 integration points.
  Task    55 has       1879 integration points.
  Task    56 has       1842 integration points.
  Task    57 has       1832 integration points.
  Task    58 has       1818 integration points.
  Task    59 has       1832 integration points.
  Task    60 has       1821 integration points.
  Task    61 has       1906 integration points.
  Task    62 has       1830 integration points.
  Task    63 has       1872 integration points.
  Task    64 has       1904 integration points.
  Task    65 has       1879 integration points.
  Task    66 has       1824 integration points.
  Task    67 has       1825 integration points.
  Task    68 has       1925 integration points.
  Task    69 has       1862 integration points.
  Task    70 has       1827 integration points.
  Task    71 has       1830 integration points.
  Task    72 has       1906 integration points.
  Task    73 has       1839 integration points.
  Task    74 has       1824 integration points.
  Task    75 has       1836 integration points.
  Task    76 has       1829 integration points.
  Task    77 has       1827 integration points.
  Task    78 has       1839 integration points.
  Task    79 has       1830 integration points.
  Initializing partition tables, free-atom densities, potentials, etc. across the integration grid (initialize_grid_storage).
  | initialize_grid_storage: Actual outermost partition radius vs. multipole_radius_free
  | (-- VB: in principle, multipole_radius_free should be larger, hence this output)
  | Species        1: Confinement radius =              6.000000000000000 AA, multipole_radius_free =              6.016994434057369 AA.
  | Species        1: outer_partition_radius set to              6.016994434057369 AA .
  | Species        2: Confinement radius =              6.000000000000000 AA, multipole_radius_free =              6.012827091137924 AA.
  | Species        2: outer_partition_radius set to              6.012827091137924 AA .
  | Original list of interatomic distances with         366 x        366 entries is created.
  | Net number of integration points:   147996
  | of which are non-zero points    :   117814
  | Numerical average free-atom electrostatic potential    :     -2.24554078 eV
  Renormalizing the initial density to the exact electron count on the 3D integration grid.
  | Initial density: Formal number of electrons (from input files) :     148.0000000000
  | Integrated number of electrons on 3D grid     :     147.9998441801
  | Charge integration error                      :      -0.0001558199
  | Normalization factor for density and gradient :       1.0000010528
  Obtaining max. number of non-zero basis functions in each batch (get_n_compute_maxes).
  | Maximal number of non-zero basis functions:     2199 in task     0
  | Maximal number of non-zero basis functions:     2264 in task     1
  | Maximal number of non-zero basis functions:     2245 in task     2
  | Maximal number of non-zero basis functions:     2319 in task     3
  | Maximal number of non-zero basis functions:     2231 in task     4
  | Maximal number of non-zero basis functions:     2289 in task     5
  | Maximal number of non-zero basis functions:     2211 in task     6
  | Maximal number of non-zero basis functions:     2204 in task     7
  | Maximal number of non-zero basis functions:     2254 in task     8
  | Maximal number of non-zero basis functions:     2116 in task     9
  | Maximal number of non-zero basis functions:     2217 in task    10
  | Maximal number of non-zero basis functions:     2355 in task    11
  | Maximal number of non-zero basis functions:     2240 in task    12
  | Maximal number of non-zero basis functions:     2309 in task    13
  | Maximal number of non-zero basis functions:     2282 in task    14
  | Maximal number of non-zero basis functions:     2278 in task    15
  | Maximal number of non-zero basis functions:     2250 in task    16
  | Maximal number of non-zero basis functions:     2294 in task    17
  | Maximal number of non-zero basis functions:     2249 in task    18
  | Maximal number of non-zero basis functions:     2246 in task    19
  | Maximal number of non-zero basis functions:     2256 in task    20
  | Maximal number of non-zero basis functions:     2296 in task    21
  | Maximal number of non-zero basis functions:     2409 in task    22
  | Maximal number of non-zero basis functions:     2274 in task    23
  | Maximal number of non-zero basis functions:     2364 in task    24
  | Maximal number of non-zero basis functions:     2250 in task    25
  | Maximal number of non-zero basis functions:     2167 in task    26
  | Maximal number of non-zero basis functions:     2185 in task    27
  | Maximal number of non-zero basis functions:     2225 in task    28
  | Maximal number of non-zero basis functions:     2260 in task    29
  | Maximal number of non-zero basis functions:     2263 in task    30
  | Maximal number of non-zero basis functions:     2312 in task    31
  | Maximal number of non-zero basis functions:     2286 in task    32
  | Maximal number of non-zero basis functions:     2252 in task    33
  | Maximal number of non-zero basis functions:     2236 in task    34
  | Maximal number of non-zero basis functions:     2195 in task    35
  | Maximal number of non-zero basis functions:     2234 in task    36
  | Maximal number of non-zero basis functions:     2194 in task    37
  | Maximal number of non-zero basis functions:     2271 in task    38
  | Maximal number of non-zero basis functions:     2106 in task    39
  | Maximal number of non-zero basis functions:     2233 in task    40
  | Maximal number of non-zero basis functions:     2145 in task    41
  | Maximal number of non-zero basis functions:     2237 in task    42
  | Maximal number of non-zero basis functions:     2158 in task    43
  | Maximal number of non-zero basis functions:     2208 in task    44
  | Maximal number of non-zero basis functions:     2224 in task    45
  | Maximal number of non-zero basis functions:     2315 in task    46
  | Maximal number of non-zero basis functions:     2258 in task    47
  | Maximal number of non-zero basis functions:     2175 in task    48
  | Maximal number of non-zero basis functions:     2258 in task    49
  | Maximal number of non-zero basis functions:     2195 in task    50
  | Maximal number of non-zero basis functions:     2311 in task    51
  | Maximal number of non-zero basis functions:     2274 in task    52
  | Maximal number of non-zero basis functions:     2307 in task    53
  | Maximal number of non-zero basis functions:     2238 in task    54
  | Maximal number of non-zero basis functions:     2314 in task    55
  | Maximal number of non-zero basis functions:     2249 in task    56
  | Maximal number of non-zero basis functions:     2295 in task    57
  | Maximal number of non-zero basis functions:     2290 in task    58
  | Maximal number of non-zero basis functions:     2333 in task    59
  | Maximal number of non-zero basis functions:     2245 in task    60
  | Maximal number of non-zero basis functions:     2205 in task    61
  | Maximal number of non-zero basis functions:     2321 in task    62
  | Maximal number of non-zero basis functions:     2223 in task    63
  | Maximal number of non-zero basis functions:     2318 in task    64
  | Maximal number of non-zero basis functions:     2254 in task    65
  | Maximal number of non-zero basis functions:     2324 in task    66
  | Maximal number of non-zero basis functions:     2223 in task    67
  | Maximal number of non-zero basis functions:     2309 in task    68
  | Maximal number of non-zero basis functions:     2341 in task    69
  | Maximal number of non-zero basis functions:     2254 in task    70
  | Maximal number of non-zero basis functions:     2137 in task    71
  | Maximal number of non-zero basis functions:     2335 in task    72
  | Maximal number of non-zero basis functions:     2328 in task    73
  | Maximal number of non-zero basis functions:     2308 in task    74
  | Maximal number of non-zero basis functions:     2207 in task    75
  | Maximal number of non-zero basis functions:     2236 in task    76
  | Maximal number of non-zero basis functions:     2241 in task    77
  | Maximal number of non-zero basis functions:     2268 in task    78
  | Maximal number of non-zero basis functions:     2161 in task    79
  Allocating        1.136 MB for KS_eigenvector_complex
  Integrating Hamiltonian matrix: batch-based integration.
  Time summed over all CPUs for integration: real work       86.671 s, elapsed       92.411 s
  Integrating overlap matrix.
  Time summed over all CPUs for integration: real work       67.684 s, elapsed       72.375 s
  Decreasing sparse matrix size:
   Tolerance:  9.999999824516700E-014
   Hamiltonian matrix
  | Array has  1479143 nonzero elements out of  1753469 elements
  | Sparsity factor is 0.156
   Overlap matrix
  | Array has  1378737 nonzero elements out of  1753469 elements
  | Sparsity factor is 0.214
  New size of hamiltonian matrix:     1484786

  Updating Kohn-Sham eigenvalues and eigenvectors using ELSI and the ELPA eigensolver.
  Overlap matrix is nonsingular
  | Lowest eigenvalue of overlap  :  0.39E-04
  | Highest eigenvalue of overlap :  0.97E+01
  Finished singularity check of overlap matrix
  | Time :     0.023 s
  Finished Cholesky decomposition
  | Time :     0.007 s
  Finished transformation to standard eigenproblem
  | Time :     0.011 s
  Starting LAPACK eigensolver
  Finished solving standard eigenproblem
  | Time :     0.026 s
  Finished back-transformation of eigenvectors
  | Time :     0.003 s

  Obtaining occupation numbers and chemical potential using ELSI.
  | Chemical potential (Fermi level):    -4.36832447eV
  Writing Kohn-Sham eigenvalues.
  K-point:       1 at    0.000000    0.000000    0.000000 (in units of recip. lattice)

  State    Occupation    Eigenvalue [Ha]    Eigenvalue [eV]
      1       2.00000        -745.362499       -20282.34555
      2       2.00000        -745.362499       -20282.34555
      3       2.00000        -103.306618        -2811.11609
      4       2.00000        -103.306618        -2811.11609
      5       2.00000         -92.326987        -2512.34515
      6       2.00000         -92.326987        -2512.34515
      7       2.00000         -92.326987        -2512.34515
      8       2.00000         -92.326987        -2512.34515
      9       2.00000         -92.326971        -2512.34472
     10       2.00000         -92.326971        -2512.34472
     11       2.00000         -88.712602        -2413.99271
     12       2.00000         -88.712602        -2413.99271
     13       2.00000         -88.712500        -2413.98996
     14       2.00000         -88.712500        -2413.98996
     15       2.00000         -17.536734         -477.19881
     16       2.00000         -17.536734         -477.19881
     17       2.00000         -13.956162         -379.76649
     18       2.00000         -13.956162         -379.76649
     19       2.00000         -13.956162         -379.76649
     20       2.00000         -13.956162         -379.76649
     21       2.00000         -13.956024         -379.76273
     22       2.00000         -13.956024         -379.76273
     23       2.00000          -8.139126         -221.47689
     24       2.00000          -8.139126         -221.47689
     25       2.00000          -8.139126         -221.47689
     26       2.00000          -8.139126         -221.47689
     27       2.00000          -8.139052         -221.47488
     28       2.00000          -8.139052         -221.47488
     29       2.00000          -8.139052         -221.47488
     30       2.00000          -8.139052         -221.47488
     31       2.00000          -8.138980         -221.47291
     32       2.00000          -8.138980         -221.47291
     33       2.00000          -7.816512         -212.69813
     34       2.00000          -7.816512         -212.69812
     35       2.00000          -7.816387         -212.69472
     36       2.00000          -7.816387         -212.69472
     37       2.00000          -5.786755         -157.46561
     38       2.00000          -5.786755         -157.46561
     39       2.00000          -5.786619         -157.46193
     40       2.00000          -5.786619         -157.46193
     41       2.00000          -5.786267         -157.45235
     42       2.00000          -5.786267         -157.45235
     43       2.00000          -5.786267         -157.45234
     44       2.00000          -5.786267         -157.45234
     45       2.00000          -5.786150         -157.44915
     46       2.00000          -5.786150         -157.44915
     47       2.00000          -5.786150         -157.44915
     48       2.00000          -5.786150         -157.44915
     49       2.00000          -2.394940          -65.16965
     50       2.00000          -2.394940          -65.16965
     51       2.00000          -1.455299          -39.60071
     52       2.00000          -1.455296          -39.60063
     53       2.00000          -1.444319          -39.30191
     54       2.00000          -1.444319          -39.30191
     55       2.00000          -1.444319          -39.30191
     56       2.00000          -1.444319          -39.30191
     57       2.00000          -0.782611          -21.29592
     58       2.00000          -0.777626          -21.16028
     59       2.00000          -0.735642          -20.01785
     60       2.00000          -0.727908          -19.80738
     61       2.00000          -0.465391          -12.66393
     62       2.00000          -0.443551          -12.06963
     63       2.00000          -0.343550           -9.34848
     64       2.00000          -0.324952           -8.84238
     65       2.00000          -0.324951           -8.84237
     66       2.00000          -0.324515           -8.83050
     67       2.00000          -0.324515           -8.83049
     68       2.00000          -0.303472           -8.25790
     69       2.00000          -0.288658           -7.85478
     70       2.00000          -0.288657           -7.85476
     71       2.00000          -0.287416           -7.82098
     72       2.00000          -0.287415           -7.82096
     73       2.00000          -0.227435           -6.18881
     74       2.00000          -0.204644           -5.56865
     75       0.00000          -0.125704           -3.42057
     76       0.00000          -0.125703           -3.42056
     77       0.00000          -0.125301           -3.40962
     78       0.00000          -0.125300           -3.40959
     79       0.00000          -0.123761           -3.36770
     80       0.00000          -0.123760           -3.36769
     81       0.00000          -0.121039           -3.29364
     82       0.00000          -0.121039           -3.29363
     83       0.00000          -0.020179           -0.54909
     84       0.00000          -0.019212           -0.52280
     85       0.00000           0.034401            0.93609
     86       0.00000           0.034404            0.93618
     87       0.00000           0.075475            2.05379
     88       0.00000           0.084078            2.28788
     89       0.00000           0.126931            3.45397
     90       0.00000           0.144992            3.94542
     91       0.00000           0.144992            3.94543
     92       0.00000           0.152892            4.16039
     93       0.00000           0.152892            4.16039
     94       0.00000           0.212204            5.77436
     95       0.00000           0.212205            5.77439
     96       0.00000           0.220595            6.00269
     97       0.00000           0.228565            6.21958

  What follows are estimated values for band gap, HOMO, LUMO, etc.
  | They are estimated on a discrete k-point grid and not necessarily exact.
  | For converged numbers, create a DOS and/or band structure plot on a denser k-grid.

  Highest occupied state (VBM) at     -5.56864857 eV (relative to internal zero)
  | Occupation number:      2.00000000
  | K-point:       1 at    0.000000    0.000000    0.000000 (in units of recip. lattice)

  Lowest unoccupied state (CBM) at    -4.32105427 eV (relative to internal zero)
  | Occupation number:      0.00000000
  | K-point:     138 at    0.666667    0.166667    0.000000 (in units of recip. lattice)

  ESTIMATED overall HOMO-LUMO gap:      1.24759431 eV between HOMO at k-point 1 and LUMO at k-point 138
  | This appears to be an indirect band gap.
  | Smallest direct gap :      1.96401811 eV for k_point 83 at    0.666667    0.166667    0.000000 (in units of recip. lattice)
  The gap value is above 0.2 eV. Unless you are using a very sparse k-point grid,
  this system is most likely an insulator or a semiconductor.
  Calculating total energy contributions from superposition of free atom densities.

  Total energy components:
  | Sum of eigenvalues            :       -5856.63274611 Ha     -159367.08552980 eV
  | XC energy correction          :        -351.35240279 Ha       -9560.78532732 eV
  | XC potential correction       :         456.83878884 Ha       12431.21593759 eV
  | Free-atom electrostatic energy:       -4024.02611820 Ha     -109499.32194038 eV
  | Hartree energy correction     :           0.00000000 Ha           0.00000000 eV
  | Entropy correction            :          -0.00000000 Ha          -0.00000000 eV
  | ---------------------------
  | Total energy                  :       -9775.17247827 Ha     -265995.97685991 eV
  | Total energy, T -> 0          :       -9775.17247827 Ha     -265995.97685991 eV  <-- do not rely on this value for anything but (periodic) metals
  | Electronic free energy        :       -9775.17247827 Ha     -265995.97685991 eV

  Derived energy quantities:
  | Kinetic energy                :       10036.72176706 Ha      273113.09512303 eV
  | Electrostatic energy          :      -19460.54184254 Ha     -529548.28665562 eV
  | Energy correction for multipole
  | error in Hartree potential    :           0.00000000 Ha           0.00000000 eV
  | Sum of eigenvalues per atom                           :      -26561.18092163 eV
  | Total energy (T->0) per atom                          :      -44332.66280998 eV  <-- do not rely on this value for anything but (periodic) metals
  | Electronic free energy per atom                       :      -44332.66280998 eV
  Initialize hartree_potential_storage
  Max. number of atoms included in rho_multipole:            6

  End scf initialization - timings             :  max(cpu_time)    wall_clock(cpu1)
  | Time for scf. initialization               :        3.796 s           3.789 s
  | Boundary condition initialization          :        1.044 s           1.032 s
  | Relaxation initialization                  :        0.004 s           0.002 s
  | Integration                                :        2.156 s           2.151 s
  | Solution of K.-S. eqns.                    :        0.288 s           0.285 s
  | Grid partitioning                          :        0.136 s           0.128 s
  | Preloading free-atom quantities on grid    :        0.012 s           0.012 s
  | Free-atom superposition energy             :        0.012 s           0.011 s
  | Total energy evaluation                    :        0.004 s           0.001 s

  Partial memory accounting:
  | Current value for overall tracked memory usage on task 0  :          30.833 MB
  | Peak value for overall tracked memory usage on task 0     :          84.866 MB after allocating wave
  | Largest tracked array allocation on task 0 so far         :          38.685 MB  when allocating hamiltonian_shell
  Note:  These values currently only include a subset of arrays which are explicitly tracked.
  The "true" memory usage will be greater.
------------------------------------------------------------

------------------------------------------------------------
          Begin self-consistency iteration #    1

  Date     :  20191127, Time     :  215213.695
------------------------------------------------------------
  Evaluating new KS density using the density matrix
  Evaluating density matrix
  Time summed over all CPUs for getting density from density matrix: real work      176.575 s, elapsed      188.118 s
  Integration grid: deviation in total charge (<rho> - N_e) =   4.263256E-13
  Pulay mixing of updated and previous charge densities.

  Evaluating partitioned Hartree potential by multipole expansion.
  | Analytical far-field extrapolation by fixed multipoles:
  | Hartree multipole sum: apparent total charge =   0.698020E-04
  Summing up the Hartree potential.
  | Estimated reciprocal-space cutoff momentum G_max:         1.90186217 bohr^-1 .
  | Reciprocal lattice points for long-range Hartree potential:     648
  Time summed over all CPUs for potential: real work       12.585 s, elapsed       13.243 s
  | RMS charge density error from multipole expansion :   0.371710E-03
  | Average real-space part of the electrostatic potential :     -0.00045589 eV

  Integrating Hamiltonian matrix: batch-based integration.
  Time summed over all CPUs for integration: real work       84.112 s, elapsed       89.750 s

  Updating Kohn-Sham eigenvalues and eigenvectors using ELSI and the ELPA eigensolver.
  Finished Cholesky decomposition
  | Time :     0.006 s
  Finished transformation to standard eigenproblem
  | Time :     0.011 s
  Starting LAPACK eigensolver
  Finished solving standard eigenproblem
  | Time :     0.026 s
  Finished back-transformation of eigenvectors
  | Time :     0.002 s

  Obtaining occupation numbers and chemical potential using ELSI.
  | Chemical potential (Fermi level):    -4.43751976eV
  Writing Kohn-Sham eigenvalues.
  K-point:       1 at    0.000000    0.000000    0.000000 (in units of recip. lattice)

  State    Occupation    Eigenvalue [Ha]    Eigenvalue [eV]
      1       2.00000        -745.380889       -20282.84597
      2       2.00000        -745.380889       -20282.84597
      3       2.00000        -103.324845        -2811.61207
      4       2.00000        -103.324845        -2811.61207
      5       2.00000         -92.345332        -2512.84432
      6       2.00000         -92.345332        -2512.84432
      7       2.00000         -92.345332        -2512.84432
      8       2.00000         -92.345332        -2512.84432
      9       2.00000         -92.345325        -2512.84415
     10       2.00000         -92.345325        -2512.84415
     11       2.00000         -88.705279        -2413.79347
     12       2.00000         -88.705279        -2413.79347
     13       2.00000         -88.705175        -2413.79064
     14       2.00000         -88.705175        -2413.79064
     15       2.00000         -17.552116         -477.61739
     16       2.00000         -17.552116         -477.61739
     17       2.00000         -13.971536         -380.18483
     18       2.00000         -13.971536         -380.18483
     19       2.00000         -13.971536         -380.18483
     20       2.00000         -13.971536         -380.18483
     21       2.00000         -13.971429         -380.18193
     22       2.00000         -13.971429         -380.18193
     23       2.00000          -8.154722         -221.90129
     24       2.00000          -8.154722         -221.90129
     25       2.00000          -8.154722         -221.90128
     26       2.00000          -8.154722         -221.90128
     27       2.00000          -8.154689         -221.90037
     28       2.00000          -8.154689         -221.90037
     29       2.00000          -8.154689         -221.90037
     30       2.00000          -8.154689         -221.90037
     31       2.00000          -8.154587         -221.89759
     32       2.00000          -8.154587         -221.89759
     33       2.00000          -7.810718         -212.54045
     34       2.00000          -7.810718         -212.54045
     35       2.00000          -7.810603         -212.53733
     36       2.00000          -7.810603         -212.53733
     37       2.00000          -5.780767         -157.30266
     38       2.00000          -5.780766         -157.30265
     39       2.00000          -5.780637         -157.29913
     40       2.00000          -5.780637         -157.29913
     41       2.00000          -5.780370         -157.29188
     42       2.00000          -5.780370         -157.29188
     43       2.00000          -5.780370         -157.29187
     44       2.00000          -5.780370         -157.29187
     45       2.00000          -5.780264         -157.28900
     46       2.00000          -5.780264         -157.28900
     47       2.00000          -5.780264         -157.28900
     48       2.00000          -5.780264         -157.28900
     49       2.00000          -2.405381          -65.45374
     50       2.00000          -2.405381          -65.45374
     51       2.00000          -1.464459          -39.84997
     52       2.00000          -1.464457          -39.84989
     53       2.00000          -1.453768          -39.55904
     54       2.00000          -1.453768          -39.55904
     55       2.00000          -1.453768          -39.55904
     56       2.00000          -1.453768          -39.55904
     57       2.00000          -0.780302          -21.23309
     58       2.00000          -0.775312          -21.09733
     59       2.00000          -0.733232          -19.95227
     60       2.00000          -0.725453          -19.74057
     61       2.00000          -0.464715          -12.64553
     62       2.00000          -0.443147          -12.05865
     63       2.00000          -0.341540           -9.29376
     64       2.00000          -0.325971           -8.87013
     65       2.00000          -0.325971           -8.87011
     66       2.00000          -0.325564           -8.85905
     67       2.00000          -0.325564           -8.85903
     68       2.00000          -0.301452           -8.20291
     69       2.00000          -0.288763           -7.85763
     70       2.00000          -0.288762           -7.85761
     71       2.00000          -0.287563           -7.82499
     72       2.00000          -0.287563           -7.82497
     73       2.00000          -0.230364           -6.26853
     74       2.00000          -0.207312           -5.64124
     75       0.00000          -0.127632           -3.47304
     76       0.00000          -0.127631           -3.47303
     77       0.00000          -0.127316           -3.46445
     78       0.00000          -0.127315           -3.46442
     79       0.00000          -0.125091           -3.40389
     80       0.00000          -0.125090           -3.40388
     81       0.00000          -0.122191           -3.32499
     82       0.00000          -0.122191           -3.32498
     83       0.00000          -0.019723           -0.53669
     84       0.00000          -0.018635           -0.50709
     85       0.00000           0.034655            0.94300
     86       0.00000           0.034732            0.94509
     87       0.00000           0.077009            2.09552
     88       0.00000           0.085694            2.33186
     89       0.00000           0.127728            3.47564
     90       0.00000           0.146147            3.97685
     91       0.00000           0.146147            3.97687
     92       0.00000           0.154010            4.19082
     93       0.00000           0.154010            4.19083
     94       0.00000           0.213391            5.80667
     95       0.00000           0.213392            5.80670
     96       0.00000           0.219827            5.98180
     97       0.00000           0.229498            6.24495

  What follows are estimated values for band gap, HOMO, LUMO, etc.
  | They are estimated on a discrete k-point grid and not necessarily exact.
  | For converged numbers, create a DOS and/or band structure plot on a denser k-grid.

  Highest occupied state (VBM) at     -5.64124261 eV (relative to internal zero)
  | Occupation number:      2.00000000
  | K-point:       1 at    0.000000    0.000000    0.000000 (in units of recip. lattice)

  Lowest unoccupied state (CBM) at    -4.39008303 eV (relative to internal zero)
  | Occupation number:      0.00000000
  | K-point:     138 at    0.666667    0.166667    0.000000 (in units of recip. lattice)

  ESTIMATED overall HOMO-LUMO gap:      1.25115958 eV between HOMO at k-point 1 and LUMO at k-point 138
  | This appears to be an indirect band gap.
  | Smallest direct gap :      1.93243005 eV for k_point 83 at    0.666667    0.166667    0.000000 (in units of recip. lattice)
  The gap value is above 0.2 eV. Unless you are using a very sparse k-point grid,
  this system is most likely an insulator or a semiconductor.

  Total energy components:
  | Sum of eigenvalues            :       -5857.43505757 Ha     -159388.91753526 eV
  | XC energy correction          :        -351.33008431 Ha       -9560.17801059 eV
  | XC potential correction       :         456.80935531 Ha       12430.41501045 eV
  | Free-atom electrostatic energy:       -4024.02611820 Ha     -109499.32194038 eV
  | Hartree energy correction     :           0.83309619 Ha          22.66970077 eV
  | Entropy correction            :          -0.00000000 Ha          -0.00000000 eV
  | ---------------------------
  | Total energy                  :       -9775.14880858 Ha     -265995.33277500 eV
  | Total energy, T -> 0          :       -9775.14880858 Ha     -265995.33277500 eV  <-- do not rely on this value for anything but (periodic) metals
  | Electronic free energy        :       -9775.14880858 Ha     -265995.33277500 eV

  Derived energy quantities:
  | Kinetic energy                :       10036.49677947 Ha      273106.97289904 eV
  | Electrostatic energy          :      -19460.31550374 Ha     -529542.12766345 eV
  | Energy correction for multipole
  | error in Hartree potential    :          -0.00011880 Ha          -0.00323258 eV
  | Sum of eigenvalues per atom                           :      -26564.81958921 eV
  | Total energy (T->0) per atom                          :      -44332.55546250 eV  <-- do not rely on this value for anything but (periodic) metals
  | Electronic free energy per atom                       :      -44332.55546250 eV

  Self-consistency convergence accuracy:
  | Change of charge density      :  0.3947E+00
  | Change of sum of eigenvalues  : -0.2183E+02 eV
  | Change of total energy        :  0.6441E+00 eV

  End self-consistency iteration #     1       :  max(cpu_time)    wall_clock(cpu1)
  | Time for this iteration                    :        4.044 s           4.038 s
  | Charge density update                      :        2.432 s           2.426 s
  | Density mixing & preconditioning           :        0.056 s           0.054 s
  | Hartree multipole update                   :        0.004 s           0.002 s
  | Hartree multipole summation                :        0.184 s           0.178 s
  | Integration                                :        1.164 s           1.161 s
  | Solution of K.-S. eqns.                    :        0.220 s           0.216 s
  | Total energy evaluation                    :        0.004 s           0.001 s

  Partial memory accounting:
  | Current value for overall tracked memory usage on task 0  :          30.833 MB
  | Peak value for overall tracked memory usage on task 0     :          89.361 MB after allocating gradient_basis_wave
  | Largest tracked array allocation on task 0 so far         :          38.685 MB  when allocating hamiltonian_shell
[...]
  | Sum of eigenvalues per atom                           :      -26573.01223750 eV
  | Total energy (T->0) per atom                          :      -44332.58740059 eV  <-- do not rely on this value for anything but (periodic) metals
  | Electronic free energy per atom                       :      -44332.58740059 eV

  atomic forces [eV/Ang]:
  -----------------------
  atom #    1
   Hellmann-Feynman              : -0.272310E-01  0.155591E-01 -0.767242E-02
   Ionic forces                  :  0.000000E+00  0.000000E+00  0.000000E+00
   Multipole                     :  0.902267E-04 -0.148894E-04 -0.210051E-01
   Pulay + GGA                   :  0.202574E-01 -0.116150E-01  0.903544E-02
   Van der Waals                 :  0.398406E-03 -0.235144E-03  0.143622E-01
   ----------------------------------------------------------------
   Total forces(   1)            : -0.648499E-02  0.369408E-02 -0.527984E-02
  atom #    2
   Hellmann-Feynman              :  0.272529E-01 -0.155256E-01  0.771485E-02
   Ionic forces                  :  0.000000E+00  0.000000E+00  0.000000E+00
   Multipole                     : -0.908821E-04  0.144321E-04  0.210045E-01
   Pulay + GGA                   : -0.202720E-01  0.116515E-01 -0.906667E-02
   Van der Waals                 : -0.398391E-03  0.235131E-03 -0.143621E-01
   ----------------------------------------------------------------
   Total forces(   2)            :  0.649161E-02 -0.362451E-02  0.529059E-02
  atom #    3
   Hellmann-Feynman              : -0.754046E-03 -0.984901E-03  0.231838E+02
   Ionic forces                  :  0.000000E+00  0.000000E+00  0.000000E+00
   Multipole                     : -0.122989E-04  0.325641E-04  0.565677E-01
   Pulay + GGA                   : -0.305710E-02  0.330417E-02 -0.231946E+02
   Van der Waals                 :  0.201038E-03 -0.118637E-03 -0.414079E-01
   ----------------------------------------------------------------
   Total forces(   3)            : -0.362241E-02  0.223319E-02  0.428471E-02
  atom #    4
   Hellmann-Feynman              :  0.848251E-03 -0.856267E-03  0.210734E+02
   Ionic forces                  :  0.000000E+00  0.000000E+00  0.000000E+00
   Multipole                     :  0.650290E-05 -0.283430E-04  0.634943E-01
   Pulay + GGA                   :  0.262207E-02 -0.126760E-02 -0.212365E+02
   Van der Waals                 : -0.200551E-03  0.117930E-03  0.102261E+00
   ----------------------------------------------------------------
   Total forces(   4)            :  0.327627E-02 -0.203428E-02  0.266355E-02
  atom #    5
   Hellmann-Feynman              :  0.761440E-03  0.982427E-03 -0.231838E+02
   Ionic forces                  :  0.000000E+00  0.000000E+00  0.000000E+00
   Multipole                     :  0.123943E-04 -0.326019E-04 -0.565678E-01
   Pulay + GGA                   :  0.307389E-02 -0.331236E-02  0.231946E+02
   Van der Waals                 : -0.201071E-03  0.118648E-03  0.414078E-01
   ----------------------------------------------------------------
   Total forces(   5)            :  0.364665E-02 -0.224388E-02 -0.428416E-02
  atom #    6
   Hellmann-Feynman              : -0.854697E-03  0.854721E-03 -0.210734E+02
   Ionic forces                  :  0.000000E+00  0.000000E+00  0.000000E+00
   Multipole                     : -0.659129E-05  0.283037E-04 -0.634944E-01
   Pulay + GGA                   : -0.264566E-02  0.126048E-02  0.212365E+02
   Van der Waals                 :  0.200568E-03 -0.117927E-03 -0.102261E+00
   ----------------------------------------------------------------
   Total forces(   6)            : -0.330638E-02  0.202558E-02 -0.267335E-02


  Analytical stress tensor components [eV]         xx                  yy                  zz                  xy                  xz                  yz
  -----------------------------------------------------------------------------------------------------------------------------------------------------------
    Nuclear Hellmann-Feynman      :    -0.2827208092E+02   -0.2824307805E+02   -0.4406537006E+01    0.2082477801E-01    0.2648889610E-02   -0.1500150760E-02
    Multipole Hellmann-Feynman    :    -0.1547560834E+03   -0.1546983510E+03   -0.1284560973E+03    0.4956636410E-01    0.6292373482E-02   -0.4959734421E-02
    On-site Multipole corrections :    -0.1145501030E+01   -0.1146254973E+01   -0.1145673928E+01   -0.6678586430E-07   -0.3705485637E-07    0.1671139606E-04
    Strain deriv. of the orbitals :     0.1819871256E+03    0.1819073831E+03    0.1332173385E+03   -0.6519033453E-01   -0.5114657474E-02    0.4048884409E-02
    vdW correction   :     0.2206998837E+01    0.2206749290E+01    0.7818061087E+00   -0.2457011800E-03   -0.2071871848E-04    0.1069637580E-04
  -----------------------------------------------------------------------------------------------------------------------------------------------------------
  Sum of all contributions        :     0.2045907984E-01    0.2644834620E-01   -0.9163634155E-02    0.4955039617E-02    0.3805849845E-02   -0.2383592999E-02

  +-------------------------------------------------------------------+
  |              Analytical stress tensor - Symmetrized               |
  |                  Cartesian components [eV/A**3]                   |
  +-------------------------------------------------------------------+
  |                x                y                z                |
  |                                                                   |
  |  x         0.00002381       0.00000577       0.00000443           |
  |  y         0.00000577       0.00003079      -0.00000277           |
  |  z         0.00000443      -0.00000277      -0.00001067           |
  |                                                                   |
  |  Pressure:      -0.00001464   [eV/A**3]                           |
  |                                                                   |
  +-------------------------------------------------------------------+

 * Warning: Stress tensor is anisotropic. Be aware that pressure is an isotropic quantity.

  Timings for VdW correction (Tkatchenko-Scheffler 2009 or later):
  | CPU time:        1.572 s, Wall clock time:        1.567 s.
  Removing unitary transformations (pure translations, rotations) from forces on atoms.
  Atomic forces before filtering:
  | Net force on center of mass :   0.755489E-06  0.501765E-04  0.149729E-05 eV/A
  Removing unitary transformations (rotations) from forces on lattice.
  Lattice forces before filtering:
  | Net torque relative to origin:   0.151642E-19  0.113943E-19 -0.590053E-17 eV
  Atomic forces after filtering:
  | Net force on center of mass :   0.139380E-17 -0.348449E-18 -0.104535E-17 eV/A
  Lattice forces after filtering:
  | Net torque relative to origin:   0.151642E-19  0.113943E-19 -0.590053E-17 eV

  Energy and forces in a compact form:
  | Total energy uncorrected      :         -0.265995524403554E+06 eV
  | Total energy corrected        :         -0.265995524403554E+06 eV  <-- do not rely on this value for anything but (periodic) metals
  | Electronic free energy        :         -0.265995524403554E+06 eV
  Total atomic forces (unitary forces cleaned) [eV/Ang]:
  |   1         -0.648511610021354E-02          0.368572049376936E-02         -0.528008695230538E-02
  |   2          0.649148167718108E-02         -0.363287665357674E-02          0.529033646110661E-02
  |   3         -0.362253157178861E-02          0.222482963667273E-02          0.428446277660545E-02
  |   4          0.327614486132697E-02         -0.204264601312137E-02          0.266329776976801E-02
  |   5          0.364652852476996E-02         -0.225224435057442E-02         -0.428441146974904E-02
  |   6         -0.330650739127586E-02          0.201721688683044E-02         -0.267359858542564E-02

  ------------------------------------ 
  Start decomposition of the XC Energy 
  ------------------------------------ 
  X and C from original XC functional choice 
  Hartree-Fock Energy :          0.000000000 Ha              0.000000000 eV
  X Energy            :       -344.253018483 Ha          -9367.601251235 eV
  C Energy            :         -6.972364372 Ha           -189.727687799 eV
  Total XC Energy     :       -351.225382855 Ha          -9557.328939034 eV
  ------------------------------------ 
  LDA X and C from self-consistent density 
  X Energy LDA        :       -325.171590460 Ha          -8848.369176476 eV
  C Energy LDA        :        -12.822064585 Ha           -348.906129494 eV
  ------------------------------------ 
  End decomposition of the XC Energy 
  ------------------------------------ 

------------------------------------------------------------
  Relaxation / MD: End force evaluation.       :  max(cpu_time)    wall_clock(cpu1)
  | Time for this force evaluation             :      111.056 s         111.696 s

------------------------------------------------------------
  Geometry optimization: Attempting to predict improved coordinates.

  +-------------------------------------------------------------------+
  | Generalized derivatives on lattice vectors [eV/A]                 |
  +-------------------------------------------------------------------+
  |lattice_vector       0.00740391       0.00642131       0.00077141  |
  |lattice_vector       0.00181659       0.00969635      -0.00087386  |
  |lattice_vector       0.00003806      -0.00002384      -0.00009164  |
  +-------------------------------------------------------------------+
  | Forces on lattice vectors cleaned from atomic contributions [eV/A]|
  +-------------------------------------------------------------------+
  |lattice_vector       0.00154014      -0.01170749       0.00166998  |
  |lattice_vector      -0.01076062      -0.00441024      -0.00156882  |
  |lattice_vector      -0.00000042      -0.00002018      -0.00055214  |
  +-------------------------------------------------------------------+
  | Projected forces for shape relaxation  [eV/A]                     |
  +-------------------------------------------------------------------+
  |lattice_vector       0.00154014       0.00000000      -0.00000000  |
  |lattice_vector      -0.00078046       0.00135180       0.00000000  |
  |lattice_vector       0.00000000       0.00000000      -0.00055214  |
  +-------------------------------------------------------------------+
  Removing unitary transformations (pure translations, rotations) from forces on atoms.
  Atomic forces before filtering:
  | Net force on center of mass :   0.139380E-17 -0.348449E-18 -0.104535E-17 eV/A
  Removing unitary transformations (rotations) from forces on lattice.
  Lattice forces before filtering:
  | Net torque relative to origin:   0.639737E-36  0.559770E-36 -0.368783E-18 eV
  Atomic forces after filtering:
  | Net force on center of mass :   0.139380E-17 -0.348449E-18 -0.104535E-17 eV/A
  Lattice forces after filtering:
  | Net torque relative to origin:   0.639737E-36  0.559770E-36 -0.368783E-18 eV
  || Forces on lattice vectors || =   0.154014E-02 eV/A.
  Net remaining forces (excluding translations, rotations) in present geometry:
  Maximum force component is  0.649148E-02 eV/A.
  Present geometry is converged.

------------------------------------------------------------
  Final atomic structure:
                         x [A]             y [A]             z [A]
  lattice_vector         3.14967086        0.00000000       -0.00000000
  lattice_vector        -1.57481495        2.72765950        0.00000000
  lattice_vector        -0.00000000       -0.00000000       99.99992379

            atom        -0.00135107        1.81905297        3.07038400  Mo
            atom         1.57620678        0.90860585        9.22961578  Mo
            atom         0.00175846        1.81759588       10.80189696  S
            atom         1.57316691        0.91002018        4.64420058  S
            atom         1.57309460        0.91006406        1.49810314  S
            atom         0.00169206        1.81763956        7.65579954  S

  Fractional coordinates:
                         L1                L2                L3
       atom_frac         0.33301246        0.66689151        0.03070386  Mo
       atom_frac         0.66698735        0.33310824        0.09229623  Mo
       atom_frac         0.33373263        0.66635732        0.10801905  S
       atom_frac         0.66628146        0.33362675        0.04644204  S
       atom_frac         0.66626655        0.33364284        0.01498104  S
       atom_frac         0.33371955        0.66637333        0.07655805  S
------------------------------------------------------------

------------------------------------------------------------------------------
  Final output of selected total energy values:

  The following output summarizes some interesting total energy values
  at the end of a run (AFTER all relaxation, molecular dynamics, etc.).

  | Total energy of the DFT / Hartree-Fock s.c.f. calculation      :        -265995.524403554 eV
  | Final zero-broadening corrected energy (caution - metals only) :        -265995.524403554 eV
  | For reference only, the value of 1 Hartree used in FHI-aims is :             27.211384500 eV

  Before relying on these values, please be sure to understand exactly which
  total energy value is referred to by a given number. Different objects may
  all carry the same name 'total energy'. Definitions:

  Total energy of the DFT / Hartree-Fock s.c.f. calculation:
  | Note that this energy does not include ANY quantities calculated after the
  | s.c.f. cycle, in particular not ANY RPA, MP2, etc. many-body perturbation terms.

  Final zero-broadening corrected energy:
  | For metallic systems only, a broadening of the occupation numbers at the Fermi
  | level can be extrapolated back to zero broadening by an electron-gas inspired
  | formula. For all systems that are not real metals, this value can be
  | meaningless and should be avoided.

------------------------------------------------------------------------------
  Methods described in the following list of references were used in this FHI-aims run.
  If you publish the results, please make sure to cite these reference if they apply.
  FHI-aims is an academic code, and for our developers (often, Ph.D. students
  and postdocs), scientific credit in the community is essential.
  Thank you for helping us!

  For any use of FHI-aims, please cite:

    Volker Blum, Ralf Gehrke, Felix Hanke, Paula Havu, Ville Havu,
    Xinguo Ren, Karsten Reuter, and Matthias Scheffler
    'Ab initio molecular simulations with numeric atom-centered orbitals'
    Computer Physics Communications 180, 2175-2196 (2009)
    http://dx.doi.org/10.1016/j.cpc.2009.06.022


  For the analytical stress tensor used in your run, please cite:

    Franz Knuth, Christian Carbogno, Viktor Atalla, Volker Blum, Matthias Scheffler
    'All-electron formalism for total energy strain derivatives and
    stress tensor components for numeric atom-centered orbitals'
    Computer Physics Communications 190, 33-50 (2015).
    http://dx.doi.org/10.1016/j.cpc.2015.01.003


  The scalable eigensolver library ELPA was used in your run.
  ELPA is essential especially for large systems on hundreds or thousands of CPUs.
  For ELPA, please cite:

    Andreas Marek, Volker Blum, Rainer Johanni, Ville Havu, Bruno Lang,
    Thomas Auckenthaler, Alexander Heinecke, Hans-Joachim Bungartz, and Hermann Lederer,
    'The ELPA Library - Scalable Parallel Eigenvalue Solutions
    for Electronic Structure Theory and Computational Science'
    The Journal of Physics: Condensed Matter 26, 213201 (2014).
    http://dx.doi.org/10.1088/0953-8984/26/21/213201


  The ELSI infrastructure was used in your run to solve the Kohn-Sham electronic structure.
  Please check out http://elsi-interchange.org to learn more.
  If scalability is important for your project, please acknowledge ELSI by citing:

    V. W-z. Yu, F. Corsetti, A. Garcia, W. P. Huhn, M. Jacquelin, W. Jia,
    B. Lange, L. Lin, J. Lu, W. Mi, A. Seifitokaldani, A. Vazquez-Mayagoitia,
    C. Yang, H. Yang, and V. Blum
    'ELSI: A unified software interface for Kohn-Sham electronic structure solvers'
    Computer Physics Communications 222, 267-285 (2018).
    http://dx.doi.org/10.1016/j.cpc.2017.09.007


  For the real-space grid partitioning and parallelization used in this calculation, please cite:

    Ville Havu, Volker Blum, Paula Havu, and Matthias Scheffler,
    'Efficient O(N) integration for all-electron electronic structure calculation'
    'using numerically tabulated basis functions'
    Journal of Computational Physics 228, 8367-8379 (2009).
    http://dx.doi.org/10.1016/j.jcp.2009.08.008

  Of course, there are many other important community references, e.g., those cited in the
  above references. Our list is limited to references that describe implementations in the
  FHI-aims code. The reason is purely practical (length of this list) - please credit others as well.

   One or more s.c.f. cycles took more than 50 s.c.f. iterations.
   It might be worth adjusting your convergence settings. For example,
   metals need a larger broadening and a smaller "charge_mix_param" value than semiconductors.

------------------------------------------------------------
          Leaving FHI-aims.
          Date     :  20191127, Time     :  220642.620

          Computational steps:
          | Number of self-consistency cycles          :          122
          | Number of SCF (re)initializations          :            6
          | Number of relaxation steps                 :            5

          Detailed time accounting                     :  max(cpu_time)    wall_clock(cpu1)
          | Total time                                 :      873.836 s         873.232 s
          | Preparation time                           :        0.444 s           0.441 s
          | Boundary condition initalization           :        6.268 s           6.233 s
          | Grid partitioning                          :        0.780 s           0.766 s
          | Preloading free-atom quantities on grid    :        0.624 s           0.613 s
          | Free-atom superposition energy             :        0.084 s           0.074 s
          | Total time for integrations                :      151.608 s         151.209 s
          | Total time for solution of K.-S. equations :       27.328 s          27.092 s
          | Total time for EV reorthonormalization     :        0.196 s           0.141 s
          | Total time for density & force components  :      635.588 s         634.760 s
          | Total time for mixing & preconditioning    :        5.908 s           5.771 s
          | Total time for Hartree multipole update    :        0.500 s           0.283 s
          | Total time for Hartree multipole sum       :       35.796 s          35.532 s
          | Total time for total energy evaluation     :        0.492 s           0.066 s
          | Total time for scaled ZORA corrections     :        0.000 s           0.000 s
          | Total time for vdW correction              :        9.512 s           9.489 s

          Partial memory accounting:
          | Residual value for overall tracked memory usage across tasks :           0.000 MB (should be 0.000 MB)
          | Peak values for overall tracked memory usage (after allocating wave_pulay):
          |   Minimum:      145.197 MB (on task 73)
          |   Maximum:      156.915 MB (on task  4)
          |   Average:      149.962 MB
          | Largest tracked array allocation (density_matrix_con):
          |   Minimum:       41.260 MB (on task 43)
          |   Maximum:       46.426 MB (on task 23)
          |   Average:       43.446 MB
          Note:  These values currently only include a subset of arrays which are explicitly tracked.
          The "true" memory usage will be greater.

          Have a nice day.
------------------------------------------------------------
