  MPI-parallelism will be employed.
------------------------------------------------------------
          Invoking FHI-aims ...
          Version 171221_1
          Compiled on 2018/11/06 at 11:18:49 on host headnode.

          When using FHI-aims, please cite the following reference:

          Volker Blum, Ralf Gehrke, Felix Hanke, Paula Havu,
          Ville Havu, Xinguo Ren, Karsten Reuter, and Matthias Scheffler,
          'Ab Initio Molecular Simulations with Numeric Atom-Centered Orbitals',
          Computer Physics Communications 180, 2175-2196 (2009)

          For any questions about FHI-aims, please visit the aimsclub website
          with its forums and wiki. Contributions to both the forums and the
          wiki are warmly encouraged - they are for you, and everyone is welcome there.

------------------------------------------------------------



  Date     :  20191128, Time     :  225407.320
  Time zero on CPU 1             :   0.448000000000000E+00  s.
  Internal wall clock time zero  :           344213647.320  s.

  FHI-aims created a unique identifier for this run for later identification
  aims_uuid : FD5BD29C-62D7-4D72-AF54-E5E0CC3F68F1

  Using       80 parallel tasks.
  Task        0 on host t030 reporting.
  Task        1 on host t030 reporting.
  Task        2 on host t030 reporting.
  Task        3 on host t030 reporting.
  Task        4 on host t030 reporting.
  Task        5 on host t030 reporting.
  Task        6 on host t030 reporting.
  Task        7 on host t030 reporting.
  Task        8 on host t030 reporting.
  Task        9 on host t030 reporting.
  Task       10 on host t030 reporting.
  Task       11 on host t030 reporting.
  Task       12 on host t030 reporting.
  Task       13 on host t030 reporting.
  Task       14 on host t030 reporting.
  Task       15 on host t030 reporting.
  Task       16 on host t030 reporting.
  Task       17 on host t030 reporting.
  Task       18 on host t030 reporting.
  Task       19 on host t030 reporting.
  Task       20 on host t029 reporting.
  Task       21 on host t029 reporting.
  Task       22 on host t029 reporting.
  Task       23 on host t029 reporting.
  Task       24 on host t029 reporting.
  Task       25 on host t029 reporting.
  Task       26 on host t029 reporting.
  Task       27 on host t029 reporting.
  Task       28 on host t029 reporting.
  Task       29 on host t029 reporting.
  Task       30 on host t029 reporting.
  Task       31 on host t029 reporting.
  Task       32 on host t029 reporting.
  Task       33 on host t029 reporting.
  Task       34 on host t029 reporting.
  Task       35 on host t029 reporting.
  Task       36 on host t029 reporting.
  Task       37 on host t029 reporting.
  Task       38 on host t029 reporting.
  Task       39 on host t029 reporting.
  Task       40 on host t024 reporting.
  Task       41 on host t024 reporting.
  Task       42 on host t024 reporting.
  Task       43 on host t024 reporting.
  Task       44 on host t024 reporting.
  Task       45 on host t024 reporting.
  Task       46 on host t024 reporting.
  Task       47 on host t024 reporting.
  Task       48 on host t024 reporting.
  Task       49 on host t024 reporting.
  Task       50 on host t024 reporting.
  Task       51 on host t024 reporting.
  Task       52 on host t024 reporting.
  Task       53 on host t024 reporting.
  Task       54 on host t024 reporting.
  Task       55 on host t024 reporting.
  Task       56 on host t024 reporting.
  Task       57 on host t024 reporting.
  Task       58 on host t024 reporting.
  Task       59 on host t024 reporting.
  Task       60 on host t021 reporting.
  Task       61 on host t021 reporting.
  Task       62 on host t021 reporting.
  Task       63 on host t021 reporting.
  Task       64 on host t021 reporting.
  Task       65 on host t021 reporting.
  Task       66 on host t021 reporting.
  Task       67 on host t021 reporting.
  Task       68 on host t021 reporting.
  Task       69 on host t021 reporting.
  Task       70 on host t021 reporting.
  Task       71 on host t021 reporting.
  Task       72 on host t021 reporting.
  Task       73 on host t021 reporting.
  Task       74 on host t021 reporting.
  Task       75 on host t021 reporting.
  Task       76 on host t021 reporting.
  Task       77 on host t021 reporting.
  Task       78 on host t021 reporting.
  Task       79 on host t021 reporting.

  Performing system and environment tests:
  | Environment variable OMP_NUM_THREADS correctly set to 1.
  | Stacksize not measured: no C compiler
  | Checking for scalapack...
  | Testing pdtran()...
  | All pdtran() tests passed.

  Obtaining array dimensions for all initial allocations:
  
  -----------------------------------------------------------------------
  Parsing control.in (first pass over file, find array dimensions only).
  The contents of control.in will be repeated verbatim below
  unless switched off by setting 'verbatim_writeout .false.' .
  in the first line of control.in .
  -----------------------------------------------------------------------
  
  #===============================================================================
  # FHI-aims file: ./control.in
  # Created using the Atomic Simulation Environment (ASE)
  # Wed Nov 27 20:14:11 2019
  #
  # List of parameters used to initialize the calculator:
  #     relativistic : ('atomic_zora', 'scalar')
  #     spin : none
  #     adjust_scf : once 2
  #     species_dir : /chemsoft/FHI-aims/stable/species_defaults/tight
  #     xc : pbe
  #     k_grid : [18, 18, 1]
  #===============================================================================
  relativistic                       atomic_zora scalar
  spin                               none
  adjust_scf                         once 2
  ### geometry optimisation section
  relax_geometry    bfgs    1E-2
  relax_unit_cell       fixed_angles
  xc                                 pbe
  many_body_dispersion
  k_grid                             18 18 1
  #===============================================================================
  
  ################################################################################
  #
  #  FHI-aims code project
  # Volker Blum, Fritz Haber Institute Berlin, 2009
  #
  #  Suggested "tight" defaults for B atom (to be pasted into control.in file)
  #
  ################################################################################
    species        B
  #     global species definitions
      nucleus             5
      mass                10.811
  #
      l_hartree           6
  #
      cut_pot             4.0  2.0  1.0
      basis_dep_cutoff    1e-4
  #
      radial_base         32 7.0
      radial_multiplier   2
      angular_grids       specified
        division   0.3742  110
        division   0.5197  194
        division   0.5753  302
        division   0.7664  434
  #      division   0.8392  770
  #      division   1.6522  974
  #      outer_grid   974
        outer_grid  434
  ################################################################################
  #
  #  Definition of "minimal" basis
  #
  ################################################################################
  #     valence basis states
      valence      2  s   2.
      valence      2  p   1.
  #     ion occupancy
      ion_occ      2  s   1.
  ################################################################################
  #
  #  Suggested additional basis functions. For production calculations,
  #  uncomment them one after another (the most important basis functions are
  #  listed first).
  #
  #  Constructed for dimers: 1.25 A, 1.625 A, 2.5 A, 3.5 A
  #
  ################################################################################
  #  "First tier" - improvements: -710.52 meV to -92.39 meV
       hydro 2 p 1.4
       hydro 3 d 4.8
       hydro 2 s 4
  #  "Second tier" - improvements: -33.88 meV to -2.20 meV
       hydro 4 f 7.8
       hydro 3 p 4.2
       hydro 3 s 3.3
       hydro 5 g 11.2
       hydro 3 d 5.4
  #  "Third tier" - improvements: -1.28 meV to -0.36 meV
  #     hydro 2 p 4.7
  #     hydro 2 s 8.4
  #     hydro 4 d 5.8
  #  "Fourth tier" - improvements: -0.25 meV to -0.12 meV
  #     hydro 3 p 2.2
  #     hydro 3 s 3
  #     hydro 4 f 9.8
  #     hydro 5 g 12.8
  #     hydro 4 d 10
  #  Further functions
  #     hydro 4 f 14
  #     hydro 3 p 12.4
  ################################################################################
  #
  # For methods that use the localized form of the "resolution of identity" for
  # the two-electron Coulomb operator (RI_method LVL), particularly Hartree-Fock and
  # hybrid density functional calculations, the highest accuracy can be obtained by
  # uncommenting the line beginning with "for_aux"  below, thus adding an extra g radial
  # function to the construction of the product basis set for the expansion.
  # See Ref. New J. Phys. 17, 093020 (2015) for more information, particularly Figs. 1 and 6.
  #
  ################################################################################
  #
  # for_aux hydro 5 g 6.0
  ################################################################################
  #
  #  FHI-aims code project
  # Volker Blum, Fritz Haber Institute Berlin, 2009
  #
  #  Suggested "tight" defaults for N atom (to be pasted into control.in file)
  #
  ################################################################################
    species        N
  #     global species definitions
      nucleus             7
      mass                14.0067
  #
      l_hartree           6
  #
      cut_pot             4.0  2.0  1.0
      basis_dep_cutoff    1e-4
  #
      radial_base         35 7.0
      radial_multiplier   2
      angular_grids       specified
        division   0.1841   50
        division   0.3514  110
        division   0.5126  194
        division   0.6292  302
        division   0.6939  434
  #      division   0.7396  590
  #      division   0.7632  770
  #      division   0.8122  974
  #      division   1.1604 1202
  #      outer_grid  974
        outer_grid  434
  ################################################################################
  #
  #  Definition of "minimal" basis
  #
  ################################################################################
  #     valence basis states
      valence      2  s   2.
      valence      2  p   3.
  #     ion occupancy
      ion_occ      2  s   1.
      ion_occ      2  p   2.
  ################################################################################
  #
  #  Suggested additional basis functions. For production calculations,
  #  uncomment them one after another (the most important basis functions are
  #  listed first).
  #
  #  Constructed for dimers: 1.0 A, 1.1 A, 1.5 A, 2.0 A, 3.0 A
  #
  ################################################################################
  #  "First tier" - improvements: -1193.42 meV to -220.60 meV
       hydro 2 p 1.8
       hydro 3 d 6.8
       hydro 3 s 5.8
  #  "Second tier" - improvements: -80.21 meV to -6.86 meV
       hydro 4 f 10.8
       hydro 3 p 5.8
       hydro 1 s 0.8
       hydro 5 g 16
       hydro 3 d 4.9
  #  "Third tier" - improvements: -4.29 meV to -0.53 meV
  #     hydro 3 s 16
  #     ionic 2 p auto
  #     hydro 3 d 6.6
  #     hydro 4 f 11.6
  #  "Fourth tier" - improvements: -0.75 meV to -0.25 meV
  #     hydro 2 p 4.5
  #     hydro 2 s 2.4
  #     hydro 5 g 14.4
  #     hydro 4 d 14.4
  #     hydro 4 f 16.8
  # Further basis functions - -0.21 meV and below
  #     hydro 3 p 14.8
  #     hydro 3 s 4.4
  #     hydro 3 d 19.6
  #     hydro 5 g 12.8
  ################################################################################
  #
  # For methods that use the localized form of the "resolution of identity" for
  # the two-electron Coulomb operator (RI_method LVL), particularly Hartree-Fock and
  # hybrid density functional calculations, the highest accuracy can be obtained by
  # uncommenting the line beginning with "for_aux"  below, thus adding an extra g radial
  # function to the construction of the product basis set for the expansion.
  # See Ref. New J. Phys. 17, 093020 (2015) for more information, particularly Figs. 1 and 6.
  #
  ################################################################################
  #
  # for_aux hydro 5 g 6.0
  
  -----------------------------------------------------------------------
  Completed first pass over input file control.in .
  -----------------------------------------------------------------------
  
  
  -----------------------------------------------------------------------
  Parsing geometry.in (first pass over file, find array dimensions only).
  The contents of geometry.in will be repeated verbatim below
  unless switched off by setting 'verbatim_writeout .false.' .
  in the first line of geometry.in .
  -----------------------------------------------------------------------
  
  #=======================================================
  # FHI-aims file: ./geometry.in
  # Created using the Atomic Simulation Environment (ASE)
  # Wed Nov 27 20:14:11 2019
  #=======================================================
  lattice_vector 2.5124280400000001 0.0000000000000000 0.0000000000000000
  lattice_vector -1.2562140200000000 2.1758265099999998 0.0000000000000000
  lattice_vector 0.0000000000000000 0.0000000000000000 100.0000000000000000
  atom -0.0000012600000000 1.4505517299999999 1.9268162499999999 B
  atom 1.2562152799999999 0.7252747800000000 5.7804487599999996 B
  atom -0.0000012600000000 1.4505517299999999 5.7804487599999996 N
  atom 1.2562152799999999 0.7252747800000000 1.9268162499999999 N
  
  -----------------------------------------------------------------------
  Completed first pass over input file geometry.in .
  -----------------------------------------------------------------------
  

  Basic array size parameters:
  | Number of species                 :        2
  | Number of atoms                   :        4
  | Number of lattice vectors         :        3
  | Max. basis fn. angular momentum   :        4
  | Max. atomic/ionic basis occupied n:        2
  | Max. number of basis fn. types    :        2
  | Max. radial fns per species/type  :        8
  | Max. logarithmic grid size        :     1290
  | Max. radial integration grid size :       71
  | Max. angular integration grid size:      434
  | Max. angular grid division number :        8
  | Radial grid for Hartree potential :     1290
  | Number of spin channels           :        1

------------------------------------------------------------
          Reading file control.in.
------------------------------------------------------------
  Scalar relativistic treatment of kinetic energy: on-site free-atom approximation to ZORA.
  Spin treatment: No spin polarisation.
  S.C.F. convergence parameters will be adjusted in iteration number     2 of the first full s.c.f. cycle only.
  Geometry relaxation: Modified BFGS - TRM (trust radius method, i.e., trusted quadratic extrapolation).
  Convergence accuracy for geometry relaxation: Maximum force <   0.100000E-01 eV/A.
  XC: Using PBE gradient-corrected functionals.
  Using the default MBD implementation with analytical forces
  Found k-point grid:        18        18         1
 
  Reading configuration options for species B                   .
  | Found nuclear charge :   5.0000
  | Found atomic mass :    10.8110000000000      amu
  | Found l_max for Hartree potential  :   6
  | Found cutoff potl. onset [A], width [A], scale factor :    4.00000    2.00000    1.00000
  | Threshold for basis-dependent cutoff potential is   0.100000E-03
  | Found data for basic radial integration grid :    32 points, outermost radius =    7.000 A
  | Found multiplier for basic radial grid :   2
  | Found angular grid specification: user-specified.
  | Specified grid contains     5 separate shells.
  | Check grid settings after all constraints further below.
  | Found free-atom valence shell :  2 s   2.000
  | Found free-atom valence shell :  2 p   1.000
  | No ionic wave fns used. Skipping ion_occ.
  | Found hydrogenic basis function :  2 p   1.400
  | Found hydrogenic basis function :  3 d   4.800
  | Found hydrogenic basis function :  2 s   4.000
  | Found hydrogenic basis function :  4 f   7.800
  | Found hydrogenic basis function :  3 p   4.200
  | Found hydrogenic basis function :  3 s   3.300
  | Found hydrogenic basis function :  5 g  11.200
  | Found hydrogenic basis function :  3 d   5.400
  Species B                   : Missing cutoff potential type.
  Defaulting to exp(1/x)/(1-x)^2 type cutoff potential.
  Species B : No 'logarithmic' tag. Using default grid for free atom:
  | Default logarithmic grid data [bohr] : 0.1000E-03 0.1000E+03 0.1012E+01
  Species B : On-site basis accuracy parameter (for Gram-Schmidt orthonormalisation) not specified.
  Using default value basis_acc =  0.1000000E-03.
  Species B                   : Using default innermost maximum threshold i_radial=  2 for radial functions.
  Species B                   : Default cutoff onset for free atom density etc. : 0.40000000E+01 AA.
  Species B                   : Basic radial grid will be enhanced according to radial_multiplier =   2, to contain    65 grid points.
 
  Reading configuration options for species N                   .
  | Found nuclear charge :   7.0000
  | Found atomic mass :    14.0067000000000      amu
  | Found l_max for Hartree potential  :   6
  | Found cutoff potl. onset [A], width [A], scale factor :    4.00000    2.00000    1.00000
  | Threshold for basis-dependent cutoff potential is   0.100000E-03
  | Found data for basic radial integration grid :    35 points, outermost radius =    7.000 A
  | Found multiplier for basic radial grid :   2
  | Found angular grid specification: user-specified.
  | Specified grid contains     6 separate shells.
  | Check grid settings after all constraints further below.
  | Found free-atom valence shell :  2 s   2.000
  | Found free-atom valence shell :  2 p   3.000
  | No ionic wave fns used. Skipping ion_occ.
  | No ionic wave fns used. Skipping ion_occ.
  | Found hydrogenic basis function :  2 p   1.800
  | Found hydrogenic basis function :  3 d   6.800
  | Found hydrogenic basis function :  3 s   5.800
  | Found hydrogenic basis function :  4 f  10.800
  | Found hydrogenic basis function :  3 p   5.800
  | Found hydrogenic basis function :  1 s   0.800
  | Found hydrogenic basis function :  5 g  16.000
  | Found hydrogenic basis function :  3 d   4.900
  Species N                   : Missing cutoff potential type.
  Defaulting to exp(1/x)/(1-x)^2 type cutoff potential.
  Species N : No 'logarithmic' tag. Using default grid for free atom:
  | Default logarithmic grid data [bohr] : 0.1000E-03 0.1000E+03 0.1012E+01
  Species N : On-site basis accuracy parameter (for Gram-Schmidt orthonormalisation) not specified.
  Using default value basis_acc =  0.1000000E-03.
  Species N                   : Using default innermost maximum threshold i_radial=  2 for radial functions.
  Species N                   : Default cutoff onset for free atom density etc. : 0.40000000E+01 AA.
  Species N                   : Basic radial grid will be enhanced according to radial_multiplier =   2, to contain    71 grid points.
  | MBD: Using the same k-grid sampling as DFT
 
  Finished reading input file 'control.in'. Consistency checks are next.
 
  MPI_IN_PLACE appears to work with this MPI implementation.
  | Keeping use_mpi_in_place .true. (see manual).
  Target number of points in a grid batch is not set. Defaulting to  100
  Method for grid partitioning is not set. Defaulting to parallel hash+maxmin partitioning.
  Batch size limit is not set. Defaulting to    200
  By default, will store active basis functions for each batch.
  If in need of memory, prune_basis_once .false. can be used to disable this option.
  communication_type for Hartree potential was not specified.
  Defaulting to calc_hartree .
  Defaulting to Pulay charge density mixer.
  Pulay mixer: Number of relevant iterations not set.
  Defaulting to    8 iterations.
  Pulay mixer: Number of initial linear mixing iterations not set.
  Defaulting to    0 iterations.
  Work space size for distributed Hartree potential not set.
  Defaulting to   0.200000E+03 MB.
  Mixing parameter for charge density mixing has not been set.
  Using default: charge_mix_param =     0.0500.
  The mixing parameter will be adjusted in iteration number     2 of the first full s.c.f. cycle only.
  Algorithm-dependent basis array size parameters:
  | n_max_pulay                         :        8
 * Notice: The s.c.f. convergence criterion sc_accuracy_rho was not provided.
 * We used to stop in this case, and ask the user to provide reasonable
 * scf convergence criteria. However, this led some users to employ criteria
 * that led to extremely long run times, e.g., for simple relaxation.
 * We now preset a default value for sc_accuracy_rho if it is not set.
 * You may still wish to check if this setting is too tight or too loose for your needs.
 * Based on n_atoms, FHI-aims chose sc_accuracy_rho =  0.100000E-05 .
  Maximum number of self-consistency iterations not provided.
  Presetting  1000 iterations.
  Presetting      1001 iterations before the initial mixing cycle
  is restarted anyway using the sc_init_iter criterion / keyword.
  Presetting a factor      1.000 between actual scf density residual
  and density convergence criterion sc_accuracy_rho below which sc_init_iter
  takes no effect.
 * No s.c.f. convergence criteria (sc_accuracy_*) were provided in control.in.
 * The run will proceed with a reasonable default guess, but please check whether.
 * the s.c.f. cycles seem to take too much or too little time.
  No maximum number of relaxation steps, defaulting to     1000
  Default initial Hessian is Lindh matrix (thres = 15.00) plus  0.200000E+01 eV/A^2 times unity.
  No maximum energy tolerance for TRM/BFGS moves, defaulting to   0.200000E-03
  No harmonic length scale. Defaulting to   0.250000E-01 A.
  No trust radius initializer. Defaulting to   0.200000E+00 A.
  Unit cell relaxation: Restricted relaxation with fixed angles between lattice vectors.
  Unit cell relaxation: Analytical stress will be used.
  Analytical stress will be computed.
  Analytical stress calculation: Only the upper triangle is calculated.
                                 Final output is symmetrized.
  Analytical stress calculation: scf convergence accuracy of stress not set.
                                 Analytical stress self-consistency will not be checked explicitly.
                                 Be sure to set other criteria like sc_accuracy_rho tight enough.
  Force calculation: scf convergence accuracy of forces not set.
  Defaulting to 'sc_accuracy_forces not_checked'.
  Handling of forces: Unphysical translation and rotation will be removed from forces.
  No accuracy limit for integral partition fn. given. Defaulting to  0.1000E-14.
  No threshold value for u(r) in integrations given. Defaulting to  0.1000E-05.
  No occupation type (smearing scheme) given. Defaulting to Gaussian broadening, width =  0.1000E-01 eV.
  The width will be adjusted in iteration number     2 of the first full s.c.f. cycle only.
  S.C.F. convergence parameters will be adjusted in iteration number     2 of the first full s.c.f. cycle only.
  No accuracy for occupation numbers given. Defaulting to  0.1000E-12.
  No threshold value for occupation numbers given. Defaulting to  0.0000E+00.
  No accuracy for fermi level given. Defaulting to  0.1000E-19.
  Maximum # of iterations to find E_F not set. Defaulting to  200.
  Preferred method for the eigenvalue solver ('KS_method') not specified in 'control.in'.
  Defaulting to serial version, 'lapack_fast', since more k-points than CPUs available.
  Will not use alltoall communication since running on < 1024 CPUs.
  Threshold for basis singularities not set.
  Default threshold for basis singularities:  0.1000E-04
  partition_type (choice of integration weights) for integrals was not specified.
  | Using a version of the partition function of Stratmann and coworkers ('stratmann_smoother').
  | At each grid point, the set of atoms used to build the partition table is smoothly restricted to
  | only those atoms whose free-atom density would be non-zero at that grid point.
  Partitioning for Hartree potential was not defined. Using partition_type for integrals.
  | Adjusted default value of keyword multip_moments_threshold to:       0.10000000E-11
  | This value may affect high angular momentum components of the Hartree potential in periodic systems.
  Angular momentum expansion for Kerker preconditioner not set explicitly.
  | Using default value of   0
  No explicit requirement for turning off preconditioner.
  | By default, it will be turned off when the charge convergence reaches
  | sc_accuracy_rho  =   0.100000E-05
  No special mixing parameter while Kerker preconditioner is on.
  Using default: charge_mix_param =     0.0500.
  No q(lm)/r^(l+1) cutoff set for long-range Hartree potential.
  | Using default value of  0.100000E-09 .
  | Verify using the multipole_threshold keyword.
  Defaulting to new monopole extrapolation.
  Density update method: automatic selection selected.
  Using density matrix based charge density update.
  Using density matrix based charge density update.
  Using packed matrix style: index .
  Geometry relaxation: A file "geometry.in.next_step" is written out by default after each step.
  | This file contains the geometry of the current relaxation step as well as
  | the current Hessian matrix needed to restart the relaxation algorithm.
  | If you do not want part or all of this information, use the keywords
  | "write_restart_geometry" or "hessian_to_restart_geometry" to switch the output off.
  Defaulting to use time-reversal symmetry for k-point grid.
------------------------------------------------------------


------------------------------------------------------------
          Reading geometry description geometry.in.
------------------------------------------------------------
  Input structure read successfully.
  The structure contains        4 atoms,  and a total of         24.000 electrons.

  Input geometry:
  | Unit cell:
  |        2.51242804        0.00000000        0.00000000
  |       -1.25621402        2.17582651        0.00000000
  |        0.00000000        0.00000000      100.00000000
  | Atomic structure:
  |       Atom                x [A]            y [A]            z [A]
  |    1: Species B            -0.00000126        1.45055173        1.92681625
  |    2: Species B             1.25621528        0.72527478        5.78044876
  |    3: Species N            -0.00000126        1.45055173        5.78044876
  |    4: Species N             1.25621528        0.72527478        1.92681625

  Lattice parameters for 3D lattice (in Angstroms) :     2.512428    2.512428  100.000000
  Angle(s) between unit vectors (in degrees)      :    90.000000   90.000000  120.000000

  |

  | The smallest distance between any two atoms is         1.45054955 AA.
  |
  | The first atom of this pair is atom number                      1 .
  | The second atom of this pair is atom number                     4 .
  | Wigner-Seitz cell of the first atom image           0     1     0 .
  | (The Wigner-Seitz cell of the second atom is 0 0 0  by definition.)

  Quantities derived from the lattice vectors:
  | Reciprocal lattice vector 1:  2.500842  1.443862  0.000000
  | Reciprocal lattice vector 2: -0.000000  2.887723  0.000000
  | Reciprocal lattice vector 3:  0.000000  0.000000  0.062832
  | Unit cell volume                               :   0.546661E+03  A^3

  Range separation radius for Ewald summation (hartree_convergence_parameter):      5.00000000 bohr.

  Fractional coordinates:
                         L1                L2                L3
       atom_frac         0.33333300        0.66666700        0.01926816  B
       atom_frac         0.66666700        0.33333300        0.05780449  B
       atom_frac         0.33333300        0.66666700        0.05780449  N
       atom_frac         0.66666700        0.33333300        0.01926816  N

  Number of empty states per atom not set in control.in - providing a guess from actual geometry.
  | Total number of empty states used during s.c.f. cycle:       12
  If you use a very high smearing, use empty_states (per atom!) in control.in to increase this value.

  Structure-dependent array size parameters: 
  | Maximum number of distinct radial functions  :       22
  | Maximum number of basis functions            :      156
  | Number of Kohn-Sham states (occupied + empty):       24
------------------------------------------------------------

------------------------------------------------------------
          Preparing all fixed parts of the calculation.
------------------------------------------------------------
  Determining machine precision:
    2.225073858507201E-308
  Setting up grids for atomic and cluster calculations.

  Creating wave function, potential, and density for free atoms.

  Species: B

  List of occupied orbitals and eigenvalues:
    n    l              occ      energy [Ha]    energy [eV]
    1    0           2.0000        -6.635780      -180.5688
    2    0           2.0000        -0.345517        -9.4020
    2    1           1.0000        -0.130792        -3.5590


  Species: N

  List of occupied orbitals and eigenvalues:
    n    l              occ      energy [Ha]    energy [eV]
    1    0           2.0000       -14.144983      -384.9046
    2    0           2.0000        -0.682735       -18.5782
    2    1           3.0000        -0.260361        -7.0848

  Creating fixed part of basis set: Ionic, confined, hydrogenic.
 
  B                    hydrogenic:
 
  List of hydrogenic basis orbitals: 
    n    l      effective z      eigenvalue [eV]  inner max. [A]     outer max. [A]     outer radius [A]   
    2    1         1.400000        -6.6027           1.494848           1.494848           5.462314
    3    2         4.800000       -34.8303           0.986467           0.986467           4.893206
    2    0         4.000000       -54.4226           0.101523           0.692014           3.878983
    4    3         7.800000       -51.7355           1.087819           1.087819           4.716999
    3    1         4.200000       -26.6660           0.380156           1.513234           5.395944
    3    0         3.300000       -16.4170           0.119010           2.079440           5.462314
    5    4        11.200000       -68.2678           1.185008           1.185008           4.659684
    3    2         5.400000       -44.0822           0.883689           0.883689           4.491886
 
 
  N                    hydrogenic:
 
  List of hydrogenic basis orbitals: 
    n    l      effective z      eigenvalue [eV]  inner max. [A]     outer max. [A]     outer radius [A]   
    2    1         1.800000       -11.0118           1.177451           1.177451           5.427479
    3    2         6.800000       -69.9029           0.704619           0.704619           3.854246
    3    0         5.800000       -50.8549           0.067388           1.191934           4.629968
    4    3        10.800000       -99.1854           0.786571           0.786571           3.761152
    3    1         5.800000       -50.8549           0.274880           1.094176           4.518138
    1    0         0.800000        -8.7059           0.662839           0.662839           5.361532
    5    4        16.000000      -139.3222           0.825990           0.825990           3.625711
    3    2         4.900000       -36.2967           0.968267           0.968267           4.862000
 

  Adding cutoff potential to free-atom effective potential.
  Creating atomic-like basis functions for current effective potential.

  Species B                   :

  List of atomic basis orbitals and eigenvalues:
    n    l      energy [Ha]    energy [eV]    outer radius [A]
    1    0        -6.635780      -180.5688       2.349843
    2    0        -0.345517        -9.4020       5.330380
    2    1        -0.130792        -3.5590       5.395944


  Species N                   :

  List of atomic basis orbitals and eigenvalues:
    n    l      energy [Ha]    energy [eV]    outer radius [A]
    1    0       -14.144983      -384.9046       1.637919
    2    0        -0.682735       -18.5782       5.168461
    2    1        -0.260361        -7.0848       5.361532

  Assembling full basis from fixed parts.
  | Species B :   atomic orbital   1 s accepted.
  | Species B :    hydro orbital   2 s accepted.
  | Species B :   atomic orbital   2 s accepted.
  | Species B :    hydro orbital   3 s accepted.
  | Species B :   atomic orbital   2 p accepted.
  | Species B :    hydro orbital   3 p accepted.
  | Species B :    hydro orbital   2 p accepted.
  | Species B :    hydro orbital   3 d accepted.
  | Species B :    hydro orbital   3 d accepted.
  | Species B :    hydro orbital   4 f accepted.
  | Species B :    hydro orbital   5 g accepted.
  | Species N :   atomic orbital   1 s accepted.
  | Species N :    hydro orbital   3 s accepted.
  | Species N :   atomic orbital   2 s accepted.
  | Species N :    hydro orbital   1 s accepted.
  | Species N :    hydro orbital   3 p accepted.
  | Species N :   atomic orbital   2 p accepted.
  | Species N :    hydro orbital   2 p accepted.
  | Species N :    hydro orbital   3 d accepted.
  | Species N :    hydro orbital   3 d accepted.
  | Species N :    hydro orbital   4 f accepted.
  | Species N :    hydro orbital   5 g accepted.
 
  Basis size parameters after reduction:
  | Total number of radial functions:       22
  | Total number of basis functions :      156
 
  Per-task memory consumption for arrays in subroutine allocate_ext:
  |           7.270088MB.
  Testing on-site integration grid accuracy.
  |  Species  Function  <phi|h_atom|phi> (log., in eV)  <phi|h_atom|phi> (rad., in eV)
           1        1               -180.5687569307               -180.5687561212
           1        2                 -7.1438314513                 -7.1438317353
           1        3                 12.0187568333                 12.0189574632
           1        4                 26.0253586390                 26.0301574813
           1        5                 -3.5612258789                 -3.5609079337
           1        6                 16.4693418663                 16.4693461551
           1        7                 10.2762796780                 10.2906678683
           1        8                 22.2596710941                 22.2596714919
           1        9                 36.6209961537                 36.6209620977
           1       10                 37.0814692226                 37.0814713082
           1       11                 55.9879741683                 55.9879744600
           2       12               -384.9045837902               -384.9045810034
           2       13                 12.5603464975                 12.5603454947
           2       14                -15.7898975009                -15.7898975784
           2       15                 26.9245114624                 26.9252865213
           2       16                 18.5932197356                 18.5932205974
           2       17                  1.2241635031                  1.2241662162
           2       18                 13.4399987726                 13.4405112381
           2       19                 35.9434723765                 35.9434722970
           2       20                 39.9236994475                 39.9237117159
           2       21                 72.9994981060                 72.9994982100
           2       22                116.4255814538                116.4255814827

  Preparing densities etc. for the partition functions (integrals / Hartree potential).

  Preparations completed.
  max(cpu_time)          :      0.196 s.
  Wall clock time (cpu1) :      0.199 s.
------------------------------------------------------------

------------------------------------------------------------
          Begin self-consistency loop: Initialization.

          Date     :  20191128, Time     :  225407.610
------------------------------------------------------------

  Initializing index lists of integration centers etc. from given atomic structure:
  Mapping all atomic coordinates to central unit cell.

  Initializing the k-points
          Using symmetry for reducing the k-points
  | k-points reduced from:      324 to      164
  | Number of k-points                             :       164
  The eigenvectors in the calculations are COMPLEX.
  | K-points in task   0:         2
  | K-points in task   1:         3
  | K-points in task   2:         3
  | K-points in task   3:         3
  | K-points in task   4:         3
  | K-points in task   5:         2
  | K-points in task   6:         2
  | K-points in task   7:         2
  | K-points in task   8:         2
  | K-points in task   9:         2
  | K-points in task  10:         2
  | K-points in task  11:         2
  | K-points in task  12:         2
  | K-points in task  13:         2
  | K-points in task  14:         2
  | K-points in task  15:         2
  | K-points in task  16:         2
  | K-points in task  17:         2
  | K-points in task  18:         2
  | K-points in task  19:         2
  | K-points in task  20:         2
  | K-points in task  21:         2
  | K-points in task  22:         2
  | K-points in task  23:         2
  | K-points in task  24:         2
  | K-points in task  25:         2
  | K-points in task  26:         2
  | K-points in task  27:         2
  | K-points in task  28:         2
  | K-points in task  29:         2
  | K-points in task  30:         2
  | K-points in task  31:         2
  | K-points in task  32:         2
  | K-points in task  33:         2
  | K-points in task  34:         2
  | K-points in task  35:         2
  | K-points in task  36:         2
  | K-points in task  37:         2
  | K-points in task  38:         2
  | K-points in task  39:         2
  | K-points in task  40:         2
  | K-points in task  41:         2
  | K-points in task  42:         2
  | K-points in task  43:         2
  | K-points in task  44:         2
  | K-points in task  45:         2
  | K-points in task  46:         2
  | K-points in task  47:         2
  | K-points in task  48:         2
  | K-points in task  49:         2
  | K-points in task  50:         2
  | K-points in task  51:         2
  | K-points in task  52:         2
  | K-points in task  53:         2
  | K-points in task  54:         2
  | K-points in task  55:         2
  | K-points in task  56:         2
  | K-points in task  57:         2
  | K-points in task  58:         2
  | K-points in task  59:         2
  | K-points in task  60:         2
  | K-points in task  61:         2
  | K-points in task  62:         2
  | K-points in task  63:         2
  | K-points in task  64:         2
  | K-points in task  65:         2
  | K-points in task  66:         2
  | K-points in task  67:         2
  | K-points in task  68:         2
  | K-points in task  69:         2
  | K-points in task  70:         2
  | K-points in task  71:         2
  | K-points in task  72:         2
  | K-points in task  73:         2
  | K-points in task  74:         2
  | K-points in task  75:         2
  | K-points in task  76:         2
  | K-points in task  77:         2
  | K-points in task  78:         2
  | K-points in task  79:         2
  | Number of basis functions in the Hamiltonian integrals :      3718
  | Number of basis functions in a single unit cell        :       156
  | Number of centers in hartree potential         :       820
  | Number of centers in hartree multipole         :       432
  | Number of centers in electron density summation:       328
  | Number of centers in basis integrals           :       376
  | Number of centers in integrals                 :       130
  | Number of centers in hamiltonian               :       344
  | Consuming        256 KiB for k_phase.
  | Number of super-cells (origin) [n_cells]                     :        1083
  | Number of super-cells (after PM_index) [n_cells]             :         100
  | Number of super-cells in hamiltonian [n_cells_in_hamiltonian]:         100
  | Size of matrix packed + index [n_hamiltonian_matrix_size] :      586933
  Initializing relaxation algorithms.
  Partitioning the integration grid into batches with parallel hashing+maxmin method.
  | Number of batches:      893
  | Maximal batch size:     139
  | Minimal batch size:      13
  | Average batch size:      87.041
  | Standard deviation of batch sizes:      22.789

  Integration load balanced across    80 MPI tasks.
  Work distribution over tasks is as follows:
  Task     0 has        909 integration points.
  Task     1 has        998 integration points.
  Task     2 has        994 integration points.
  Task     3 has       1001 integration points.
  Task     4 has        924 integration points.
  Task     5 has        971 integration points.
  Task     6 has        921 integration points.
  Task     7 has        989 integration points.
  Task     8 has        899 integration points.
  Task     9 has        986 integration points.
  Task    10 has       1016 integration points.
  Task    11 has        965 integration points.
  Task    12 has       1011 integration points.
  Task    13 has        996 integration points.
  Task    14 has       1012 integration points.
  Task    15 has        974 integration points.
  Task    16 has        995 integration points.
  Task    17 has        991 integration points.
  Task    18 has        990 integration points.
  Task    19 has        993 integration points.
  Task    20 has        909 integration points.
  Task    21 has        970 integration points.
  Task    22 has       1008 integration points.
  Task    23 has        993 integration points.
  Task    24 has        960 integration points.
  Task    25 has        991 integration points.
  Task    26 has       1012 integration points.
  Task    27 has        941 integration points.
  Task    28 has        963 integration points.
  Task    29 has        909 integration points.
  Task    30 has        995 integration points.
  Task    31 has        991 integration points.
  Task    32 has       1020 integration points.
  Task    33 has        988 integration points.
  Task    34 has        990 integration points.
  Task    35 has        915 integration points.
  Task    36 has        962 integration points.
  Task    37 has        949 integration points.
  Task    38 has        909 integration points.
  Task    39 has        897 integration points.
  Task    40 has        997 integration points.
  Task    41 has        958 integration points.
  Task    42 has        899 integration points.
  Task    43 has        996 integration points.
  Task    44 has       1009 integration points.
  Task    45 has        968 integration points.
  Task    46 has        961 integration points.
  Task    47 has        999 integration points.
  Task    48 has        992 integration points.
  Task    49 has        966 integration points.
  Task    50 has        927 integration points.
  Task    51 has        948 integration points.
  Task    52 has       1016 integration points.
  Task    53 has       1018 integration points.
  Task    54 has        950 integration points.
  Task    55 has        997 integration points.
  Task    56 has        908 integration points.
  Task    57 has        993 integration points.
  Task    58 has        956 integration points.
  Task    59 has        995 integration points.
  Task    60 has        909 integration points.
  Task    61 has        992 integration points.
  Task    62 has        928 integration points.
  Task    63 has        940 integration points.
  Task    64 has        993 integration points.
  Task    65 has        993 integration points.
  Task    66 has        901 integration points.
  Task    67 has       1017 integration points.
  Task    68 has        987 integration points.
  Task    69 has       1008 integration points.
  Task    70 has       1006 integration points.
  Task    71 has       1013 integration points.
  Task    72 has        990 integration points.
  Task    73 has        993 integration points.
  Task    74 has        966 integration points.
  Task    75 has        957 integration points.
  Task    76 has       1005 integration points.
  Task    77 has        909 integration points.
  Task    78 has        965 integration points.
  Task    79 has        996 integration points.
  Initializing partition tables, free-atom densities, potentials, etc. across the integration grid (initialize_grid_storage).
  | initialize_grid_storage: Actual outermost partition radius vs. multipole_radius_free
  | (-- VB: in principle, multipole_radius_free should be larger, hence this output)
  | Species        1: Confinement radius =              6.000000000000000 AA, multipole_radius_free =              6.023523403561800 AA.
  | Species        1: outer_partition_radius set to              6.023523403561800 AA .
  | Species        2: Confinement radius =              6.000000000000000 AA, multipole_radius_free =              6.058726835495003 AA.
  | Species        2: outer_partition_radius set to              6.058726835495003 AA .
  | Original list of interatomic distances with         376 x        376 entries is created.
  | Net number of integration points:    77728
  | of which are non-zero points    :    58736
  | Numerical average free-atom electrostatic potential    :     -0.90233042 eV
  Renormalizing the initial density to the exact electron count on the 3D integration grid.
  | Initial density: Formal number of electrons (from input files) :      24.0000000000
  | Integrated number of electrons on 3D grid     :      24.0000545387
  | Charge integration error                      :       0.0000545387
  | Normalization factor for density and gradient :       0.9999977276
  Obtaining max. number of non-zero basis functions in each batch (get_n_compute_maxes).
  | Maximal number of non-zero basis functions:     1911 in task     0
  | Maximal number of non-zero basis functions:     1849 in task     1
  | Maximal number of non-zero basis functions:     1984 in task     2
  | Maximal number of non-zero basis functions:     1939 in task     3
  | Maximal number of non-zero basis functions:     1910 in task     4
  | Maximal number of non-zero basis functions:     1926 in task     5
  | Maximal number of non-zero basis functions:     1986 in task     6
  | Maximal number of non-zero basis functions:     1935 in task     7
  | Maximal number of non-zero basis functions:     1925 in task     8
  | Maximal number of non-zero basis functions:     1959 in task     9
  | Maximal number of non-zero basis functions:     1929 in task    10
  | Maximal number of non-zero basis functions:     1859 in task    11
  | Maximal number of non-zero basis functions:     1842 in task    12
  | Maximal number of non-zero basis functions:     1909 in task    13
  | Maximal number of non-zero basis functions:     1988 in task    14
  | Maximal number of non-zero basis functions:     1929 in task    15
  | Maximal number of non-zero basis functions:     1961 in task    16
  | Maximal number of non-zero basis functions:     2014 in task    17
  | Maximal number of non-zero basis functions:     1913 in task    18
  | Maximal number of non-zero basis functions:     1941 in task    19
  | Maximal number of non-zero basis functions:     1898 in task    20
  | Maximal number of non-zero basis functions:     1924 in task    21
  | Maximal number of non-zero basis functions:     1962 in task    22
  | Maximal number of non-zero basis functions:     1932 in task    23
  | Maximal number of non-zero basis functions:     1917 in task    24
  | Maximal number of non-zero basis functions:     1980 in task    25
  | Maximal number of non-zero basis functions:     1872 in task    26
  | Maximal number of non-zero basis functions:     1964 in task    27
  | Maximal number of non-zero basis functions:     1884 in task    28
  | Maximal number of non-zero basis functions:     1940 in task    29
  | Maximal number of non-zero basis functions:     1963 in task    30
  | Maximal number of non-zero basis functions:     1947 in task    31
  | Maximal number of non-zero basis functions:     1952 in task    32
  | Maximal number of non-zero basis functions:     1940 in task    33
  | Maximal number of non-zero basis functions:     1925 in task    34
  | Maximal number of non-zero basis functions:     1896 in task    35
  | Maximal number of non-zero basis functions:     1925 in task    36
  | Maximal number of non-zero basis functions:     1900 in task    37
  | Maximal number of non-zero basis functions:     1969 in task    38
  | Maximal number of non-zero basis functions:     1930 in task    39
  | Maximal number of non-zero basis functions:     1827 in task    40
  | Maximal number of non-zero basis functions:     1923 in task    41
  | Maximal number of non-zero basis functions:     1970 in task    42
  | Maximal number of non-zero basis functions:     1899 in task    43
  | Maximal number of non-zero basis functions:     1925 in task    44
  | Maximal number of non-zero basis functions:     1945 in task    45
  | Maximal number of non-zero basis functions:     1838 in task    46
  | Maximal number of non-zero basis functions:     1987 in task    47
  | Maximal number of non-zero basis functions:     1902 in task    48
  | Maximal number of non-zero basis functions:     1948 in task    49
  | Maximal number of non-zero basis functions:     1986 in task    50
  | Maximal number of non-zero basis functions:     1936 in task    51
  | Maximal number of non-zero basis functions:     1935 in task    52
  | Maximal number of non-zero basis functions:     1974 in task    53
  | Maximal number of non-zero basis functions:     1847 in task    54
  | Maximal number of non-zero basis functions:     1897 in task    55
  | Maximal number of non-zero basis functions:     1927 in task    56
  | Maximal number of non-zero basis functions:     1967 in task    57
  | Maximal number of non-zero basis functions:     1940 in task    58
  | Maximal number of non-zero basis functions:     1940 in task    59
  | Maximal number of non-zero basis functions:     2013 in task    60
  | Maximal number of non-zero basis functions:     1966 in task    61
  | Maximal number of non-zero basis functions:     1885 in task    62
  | Maximal number of non-zero basis functions:     1944 in task    63
  | Maximal number of non-zero basis functions:     1984 in task    64
  | Maximal number of non-zero basis functions:     1960 in task    65
  | Maximal number of non-zero basis functions:     1958 in task    66
  | Maximal number of non-zero basis functions:     1945 in task    67
  | Maximal number of non-zero basis functions:     1974 in task    68
  | Maximal number of non-zero basis functions:     1888 in task    69
  | Maximal number of non-zero basis functions:     1925 in task    70
  | Maximal number of non-zero basis functions:     1830 in task    71
  | Maximal number of non-zero basis functions:     1964 in task    72
  | Maximal number of non-zero basis functions:     1863 in task    73
  | Maximal number of non-zero basis functions:     1904 in task    74
  | Maximal number of non-zero basis functions:     1956 in task    75
  | Maximal number of non-zero basis functions:     1903 in task    76
  | Maximal number of non-zero basis functions:     1882 in task    77
  | Maximal number of non-zero basis functions:     1954 in task    78
  | Maximal number of non-zero basis functions:     1919 in task    79
  Allocating        0.120 MB for KS_eigenvector_complex
  Integrating Hamiltonian matrix: batch-based integration.
  Time summed over all CPUs for integration: real work       31.637 s, elapsed       34.338 s
  Integrating overlap matrix.
  Time summed over all CPUs for integration: real work       23.646 s, elapsed       26.192 s
  Decreasing sparse matrix size:
   Tolerance:  9.999999824516700E-014
   Hamiltonian matrix
  | Array has   499990 nonzero elements out of   586933 elements
  | Sparsity factor is 0.148
   Overlap matrix
  | Array has   466118 nonzero elements out of   586933 elements
  | Sparsity factor is 0.206
  New size of hamiltonian matrix:      500137

  Updating Kohn-Sham eigenvalues and eigenvectors using ELSI and the ELPA eigensolver.
  Overlap matrix is nonsingular
  | Lowest eigenvalue of overlap  :  0.62E-04
  | Highest eigenvalue of overlap :  0.74E+01
  Finished singularity check of overlap matrix
  | Time :     0.003 s
  Finished Cholesky decomposition
  | Time :     0.001 s
  Finished transformation to standard eigenproblem
  | Time :     0.001 s
  Starting LAPACK eigensolver
  Finished solving standard eigenproblem
  | Time :     0.003 s
  Finished back-transformation of eigenvectors
  | Time :     0.000 s

  Obtaining occupation numbers and chemical potential using ELSI.
  | Chemical potential (Fermi level):    -4.82171042eV
  Writing Kohn-Sham eigenvalues.
  K-point:       1 at    0.000000    0.000000    0.000000 (in units of recip. lattice)

  State    Occupation    Eigenvalue [Ha]    Eigenvalue [eV]
      1       2.00000         -14.295226         -388.99290
      2       2.00000         -14.295226         -388.99290
      3       2.00000          -6.712341         -182.65209
      4       2.00000          -6.712340         -182.65207
      5       2.00000          -1.065836          -29.00286
      6       2.00000          -1.064912          -28.97772
      7       2.00000          -0.573444          -15.60422
      8       2.00000          -0.562151          -15.29690
      9       2.00000          -0.495873          -13.49339
     10       2.00000          -0.495870          -13.49332
     11       2.00000          -0.495794          -13.49125
     12       2.00000          -0.495792          -13.49117
     13       0.00000          -0.118330           -3.21992
     14       0.00000          -0.067077           -1.82525
     15       0.00000          -0.031143           -0.84745
     16       0.00000           0.026054            0.70896
     17       0.00000           0.026058            0.70907
     18       0.00000           0.026442            0.71951
     19       0.00000           0.026447            0.71966
     20       0.00000           0.045889            1.24869
     21       0.00000           0.102199            2.78098
     22       0.00000           0.105631            2.87437
     23       0.00000           0.153059            4.16496
     24       0.00000           0.325490            8.85702

  What follows are estimated values for band gap, HOMO, LUMO, etc.
  | They are estimated on a discrete k-point grid and not necessarily exact.
  | For converged numbers, create a DOS and/or band structure plot on a denser k-grid.

  Highest occupied state (VBM) at    -11.26346832 eV (relative to internal zero)
  | Occupation number:      2.00000000
  | K-point:      83 at    0.333333    0.333333    0.000000 (in units of recip. lattice)

  Lowest unoccupied state (CBM) at    -4.77616860 eV (relative to internal zero)
  | Occupation number:      0.00000000
  | K-point:       8 at    0.000000    0.500000    0.000000 (in units of recip. lattice)

  ESTIMATED overall HOMO-LUMO gap:      6.48729972 eV between HOMO at k-point 83 and LUMO at k-point 8
  | This appears to be an indirect band gap.
  | Smallest direct gap :      6.50164820 eV for k_point 83 at    0.000000    0.500000    0.000000 (in units of recip. lattice)
  The gap value is above 0.2 eV. Unless you are using a very sparse k-point grid,
  this system is most likely an insulator or a semiconductor.
  Calculating total energy contributions from superposition of free atom densities.

  Total energy components:
  | Sum of eigenvalues            :         -94.91598916 Ha       -2582.79547612 eV
  | XC energy correction          :         -21.70607059 Ha        -590.65223275 eV
  | XC potential correction       :          27.88772753 Ha         758.86367668 eV
  | Free-atom electrostatic energy:         -70.84562249 Ha       -1927.80747368 eV
  | Hartree energy correction     :           0.00000000 Ha           0.00000000 eV
  | Entropy correction            :          -0.00000000 Ha          -0.00000000 eV
  | ---------------------------
  | Total energy                  :        -159.57995470 Ha       -4342.39150586 eV
  | Total energy, T -> 0          :        -159.57995470 Ha       -4342.39150586 eV  <-- do not rely on this value for anything but (periodic) metals
  | Electronic free energy        :        -159.57995470 Ha       -4342.39150586 eV

  Derived energy quantities:
  | Kinetic energy                :         158.68112591 Ha        4317.93313015 eV
  | Electrostatic energy          :        -296.55501003 Ha       -8069.67240326 eV
  | Energy correction for multipole
  | error in Hartree potential    :           0.00000000 Ha           0.00000000 eV
  | Sum of eigenvalues per atom                           :        -645.69886903 eV
  | Total energy (T->0) per atom                          :       -1085.59787646 eV  <-- do not rely on this value for anything but (periodic) metals
  | Electronic free energy per atom                       :       -1085.59787646 eV
  Initialize hartree_potential_storage
  Max. number of atoms included in rho_multipole:            4

  End scf initialization - timings             :  max(cpu_time)    wall_clock(cpu1)
  | Time for scf. initialization               :        1.696 s           1.688 s
  | Boundary condition initialization          :        0.652 s           0.636 s
  | Relaxation initialization                  :        0.004 s           0.004 s
  | Integration                                :        0.796 s           0.790 s
  | Solution of K.-S. eqns.                    :        0.044 s           0.040 s
  | Grid partitioning                          :        0.076 s           0.067 s
  | Preloading free-atom quantities on grid    :        0.012 s           0.010 s
  | Free-atom superposition energy             :        0.012 s           0.008 s
  | Total energy evaluation                    :        0.000 s           0.000 s

  Partial memory accounting:
  | Current value for overall tracked memory usage on task 0  :          10.123 MB
  | Peak value for overall tracked memory usage on task 0     :          47.496 MB after allocating wave
  | Largest tracked array allocation on task 0 so far         :          29.215 MB  when allocating hamiltonian_shell
  Note:  These values currently only include a subset of arrays which are explicitly tracked.
  The "true" memory usage will be greater.
------------------------------------------------------------

------------------------------------------------------------
          Begin self-consistency iteration #    1

  Date     :  20191128, Time     :  225409.299
------------------------------------------------------------
  Evaluating new KS density using the density matrix
  Evaluating density matrix
  Time summed over all CPUs for getting density from density matrix: real work       66.568 s, elapsed       72.865 s
  Integration grid: deviation in total charge (<rho> - N_e) =   1.072920E-12
  Pulay mixing of updated and previous charge densities.

  Evaluating partitioned Hartree potential by multipole expansion.
  | Analytical far-field extrapolation by fixed multipoles:
  | Hartree multipole sum: apparent total charge =   0.546481E-03
  Summing up the Hartree potential.
  | Estimated reciprocal-space cutoff momentum G_max:         1.90186217 bohr^-1 .
  | Reciprocal lattice points for long-range Hartree potential:     528
  Time summed over all CPUs for potential: real work        8.109 s, elapsed        8.727 s
  | RMS charge density error from multipole expansion :   0.520317E-03
  | Average real-space part of the electrostatic potential :      0.00089641 eV

  Integrating Hamiltonian matrix: batch-based integration.
  Time summed over all CPUs for integration: real work       30.676 s, elapsed       33.328 s

  Updating Kohn-Sham eigenvalues and eigenvectors using ELSI and the ELPA eigensolver.
  Finished Cholesky decomposition
  | Time :     0.001 s
  Finished transformation to standard eigenproblem
  | Time :     0.001 s
  Starting LAPACK eigensolver
  Finished solving standard eigenproblem
  | Time :     0.003 s
  Finished back-transformation of eigenvectors
  | Time :     0.000 s

  Obtaining occupation numbers and chemical potential using ELSI.
  | Chemical potential (Fermi level):    -4.75185445eV
  Writing Kohn-Sham eigenvalues.
  K-point:       1 at    0.000000    0.000000    0.000000 (in units of recip. lattice)

  State    Occupation    Eigenvalue [Ha]    Eigenvalue [eV]
      1       2.00000         -14.271748         -388.35402
      2       2.00000         -14.271748         -388.35402
      3       2.00000          -6.708757         -182.55458
      4       2.00000          -6.708757         -182.55456
      5       2.00000          -1.056543          -28.74999
      6       2.00000          -1.055579          -28.72378
      7       2.00000          -0.566973          -15.42812
      8       2.00000          -0.555214          -15.10813
      9       2.00000          -0.484333          -13.17936
     10       2.00000          -0.484330          -13.17929
     11       2.00000          -0.484251          -13.17713
     12       2.00000          -0.484248          -13.17706
     13       0.00000          -0.117117           -3.18692
     14       0.00000          -0.066025           -1.79662
     15       0.00000          -0.028358           -0.77167
     16       0.00000           0.032368            0.88078
     17       0.00000           0.032372            0.88089
     18       0.00000           0.032770            0.89172
     19       0.00000           0.032775            0.89186
     20       0.00000           0.052336            1.42414
     21       0.00000           0.106218            2.89035
     22       0.00000           0.109996            2.99315
     23       0.00000           0.156914            4.26984
     24       0.00000           0.326930            8.89621

  What follows are estimated values for band gap, HOMO, LUMO, etc.
  | They are estimated on a discrete k-point grid and not necessarily exact.
  | For converged numbers, create a DOS and/or band structure plot on a denser k-grid.

  Highest occupied state (VBM) at    -10.98296344 eV (relative to internal zero)
  | Occupation number:      2.00000000
  | K-point:      83 at    0.333333    0.333333    0.000000 (in units of recip. lattice)

  Lowest unoccupied state (CBM) at    -4.70620312 eV (relative to internal zero)
  | Occupation number:      0.00000000
  | K-point:       8 at    0.000000    0.500000    0.000000 (in units of recip. lattice)

  ESTIMATED overall HOMO-LUMO gap:      6.27676032 eV between HOMO at k-point 83 and LUMO at k-point 8
  | This appears to be an indirect band gap.
  | Smallest direct gap :      6.28450879 eV for k_point 83 at    0.000000    0.500000    0.000000 (in units of recip. lattice)
  The gap value is above 0.2 eV. Unless you are using a very sparse k-point grid,
  this system is most likely an insulator or a semiconductor.

  Total energy components:
  | Sum of eigenvalues            :         -94.65472828 Ha       -2575.68620588 eV
  | XC energy correction          :         -21.72959797 Ha        -591.29244552 eV
  | XC potential correction       :          27.91820592 Ha         759.69303595 eV
  | Free-atom electrostatic energy:         -70.84562249 Ha       -1927.80747368 eV
  | Hartree energy correction     :          -0.24672754 Ha          -6.71379789 eV
  | Entropy correction            :          -0.00000000 Ha          -0.00000000 eV
  | ---------------------------
  | Total energy                  :        -159.55847035 Ha       -4341.80688702 eV
  | Total energy, T -> 0          :        -159.55847035 Ha       -4341.80688702 eV  <-- do not rely on this value for anything but (periodic) metals
  | Electronic free energy        :        -159.55847035 Ha       -4341.80688702 eV

  Derived energy quantities:
  | Kinetic energy                :         158.80228157 Ha        4321.22994320 eV
  | Electrostatic energy          :        -296.63115395 Ha       -8071.74438470 eV
  | Energy correction for multipole
  | error in Hartree potential    :          -0.00113726 Ha          -0.03094639 eV
  | Sum of eigenvalues per atom                           :        -643.92155147 eV
  | Total energy (T->0) per atom                          :       -1085.45172176 eV  <-- do not rely on this value for anything but (periodic) metals
  | Electronic free energy per atom                       :       -1085.45172176 eV

  Self-consistency convergence accuracy:
  | Change of charge density      :  0.4171E+00
  | Change of sum of eigenvalues  :  0.7109E+01 eV
  | Change of total energy        :  0.5846E+00 eV

  End self-consistency iteration #     1       :  max(cpu_time)    wall_clock(cpu1)
  | Time for this iteration                    :        1.548 s           1.544 s
  | Charge density update                      :        0.936 s           0.930 s
  | Density mixing & preconditioning           :        0.036 s           0.033 s
  | Hartree multipole update                   :        0.004 s           0.001 s
  | Hartree multipole summation                :        0.124 s           0.120 s
  | Integration                                :        0.432 s           0.428 s
  | Solution of K.-S. eqns.                    :        0.036 s           0.032 s
  | Total energy evaluation                    :        0.000 s           0.000 s

  Partial memory accounting:
  | Current value for overall tracked memory usage on task 0  :          10.123 MB
  | Peak value for overall tracked memory usage on task 0     :          52.089 MB after allocating gradient_basis_wave
  | Largest tracked array allocation on task 0 so far         :          29.215 MB  when allocating hamiltonian_shell
  Note:  These values currently only include a subset of arrays which are explicitly tracked.
  The "true" memory usage will be greater.
------------------------------------------------------------

------------------------------------------------------------
          Begin self-consistency iteration #    2

  Date     :  20191128, Time     :  225410.844
------------------------------------------------------------
  Evaluating new KS density using the density matrix
  Evaluating density matrix
  Time summed over all CPUs for getting density from density matrix: real work       66.282 s, elapsed       72.656 s
  Integration grid: deviation in total charge (<rho> - N_e) =   9.698908E-13
  Pulay mixing of updated and previous charge densities.

  Evaluating partitioned Hartree potential by multipole expansion.
  | Analytical far-field extrapolation by fixed multipoles:
  | Hartree multipole sum: apparent total charge =   0.536643E-02
  Summing up the Hartree potential.
  Time summed over all CPUs for potential: real work        9.377 s, elapsed       10.038 s
  | RMS charge density error from multipole expansion :   0.558867E-02
  | Average real-space part of the electrostatic potential :      0.00930022 eV

  Integrating Hamiltonian matrix: batch-based integration.
  Time summed over all CPUs for integration: real work       30.637 s, elapsed       33.255 s

  Updating Kohn-Sham eigenvalues and eigenvectors using ELSI and the ELPA eigensolver.
  Finished Cholesky decomposition
  | Time :     0.001 s
  Finished transformation to standard eigenproblem
  | Time :     0.001 s
  Starting LAPACK eigensolver
  Finished solving standard eigenproblem
  | Time :     0.003 s
  Finished back-transformation of eigenvectors
  | Time :     0.000 s

  Obtaining occupation numbers and chemical potential using ELSI.
  | Chemical potential (Fermi level):    -3.98913284eV
  What follows are estimated values for band gap, HOMO, LUMO, etc.
  | They are estimated on a discrete k-point grid and not necessarily exact.
  | For converged numbers, create a DOS and/or band structure plot on a denser k-grid.

  Highest occupied state (VBM) at     -8.35781979 eV (relative to internal zero)
  | Occupation number:      2.00000000
  | K-point:      83 at    0.333333    0.333333    0.000000 (in units of recip. lattice)

  Lowest unoccupied state (CBM) at    -3.94326950 eV (relative to internal zero)
  | Occupation number:      0.00000000
  | K-point:      83 at    0.333333    0.333333    0.000000 (in units of recip. lattice)

  ESTIMATED overall HOMO-LUMO gap:      4.41455029 eV between HOMO at k-point 83 and LUMO at k-point 83
  | This appears to be a direct band gap.
  The gap value is above 0.2 eV. Unless you are using a very sparse k-point grid,
  this system is most likely an insulator or a semiconductor.

  Checking to see if s.c.f. parameters should be adjusted.
  The system likely has a gap. Increased the default Pulay mixing parameter (charge_mix_param). Value:   0.200000 .
  Kept the default occupation width. Value:   0.010000 eV.

  Total energy components:
  | Sum of eigenvalues            :         -92.16214328 Ha       -2507.85951709 eV
  | XC energy correction          :         -21.96409251 Ha        -597.67336655 eV
  | XC potential correction       :          28.22121088 Ha         767.93822019 eV
  | Free-atom electrostatic energy:         -70.84562249 Ha       -1927.80747368 eV
  | Hartree energy correction     :          -2.70453614 Ha         -73.59417281 eV
  | Entropy correction            :          -0.00000000 Ha          -0.00000000 eV
  | ---------------------------
  | Total energy                  :        -159.45518354 Ha       -4338.99630994 eV
  | Total energy, T -> 0          :        -159.45518354 Ha       -4338.99630994 eV  <-- do not rely on this value for anything but (periodic) metals
  | Electronic free energy        :        -159.45518354 Ha       -4338.99630994 eV

  Derived energy quantities:
  | Kinetic energy                :         159.74524279 Ha        4346.88922358 eV
  | Electrostatic energy          :        -297.23633382 Ha       -8088.21216697 eV
  | Energy correction for multipole
  | error in Hartree potential    :          -0.01214470 Ha          -0.33047414 eV
  | Sum of eigenvalues per atom                           :        -626.96487927 eV
  | Total energy (T->0) per atom                          :       -1084.74907748 eV  <-- do not rely on this value for anything but (periodic) metals
  | Electronic free energy per atom                       :       -1084.74907748 eV

  Self-consistency convergence accuracy:
  | Change of charge density      :  0.3816E+00
  | Change of sum of eigenvalues  :  0.6783E+02 eV
  | Change of total energy        :  0.2811E+01 eV

  End self-consistency iteration #     2       :  max(cpu_time)    wall_clock(cpu1)
  | Time for this iteration                    :        1.564 s           1.558 s
  | Charge density update                      :        0.932 s           0.928 s
  | Density mixing & preconditioning           :        0.036 s           0.033 s
  | Hartree multipole update                   :        0.004 s           0.002 s
  | Hartree multipole summation                :        0.140 s           0.137 s
  | Integration                                :        0.428 s           0.426 s
  | Solution of K.-S. eqns.                    :        0.032 s           0.032 s
  | Total energy evaluation                    :        0.004 s           0.000 s

  Partial memory accounting:
  | Current value for overall tracked memory usage on task 0  :          10.124 MB
  | Peak value for overall tracked memory usage on task 0     :          52.089 MB after allocating gradient_basis_wave
  | Largest tracked array allocation on task 0 so far         :          29.215 MB  when allocating hamiltonian_shell
  Note:  These values currently only include a subset of arrays which are explicitly tracked.
  The "true" memory usage will be greater.
------------------------------------------------------------

------------------------------------------------------------
          Begin self-consistency iteration #    3

  Date     :  20191128, Time     :  225412.403
------------------------------------------------------------
  Evaluating new KS density using the density matrix
  Evaluating density matrix
  Time summed over all CPUs for getting density from density matrix: real work       66.286 s, elapsed       72.663 s
  Integration grid: deviation in total charge (<rho> - N_e) =   1.080025E-12
  Pulay mixing of updated and previous charge densities.

  Evaluating partitioned Hartree potential by multipole expansion.
  | Analytical far-field extrapolation by fixed multipoles:
  | Hartree multipole sum: apparent total charge =   0.637462E-02
  Summing up the Hartree potential.
  Time summed over all CPUs for potential: real work        9.522 s, elapsed       10.178 s
  | RMS charge density error from multipole expansion :   0.813598E-02
  | Average real-space part of the electrostatic potential :      0.01155061 eV

  Integrating Hamiltonian matrix: batch-based integration.
  Time summed over all CPUs for integration: real work       30.616 s, elapsed       33.261 s

  Updating Kohn-Sham eigenvalues and eigenvectors using ELSI and the ELPA eigensolver.
  Finished Cholesky decomposition
  | Time :     0.001 s
  Finished transformation to standard eigenproblem
  | Time :     0.001 s
  Starting LAPACK eigensolver
  Finished solving standard eigenproblem
  | Time :     0.003 s
  Finished back-transformation of eigenvectors
  | Time :     0.000 s

  Obtaining occupation numbers and chemical potential using ELSI.
  | Chemical potential (Fermi level):    -3.62262039eV
  What follows are estimated values for band gap, HOMO, LUMO, etc.
  | They are estimated on a discrete k-point grid and not necessarily exact.
  | For converged numbers, create a DOS and/or band structure plot on a denser k-grid.

  Highest occupied state (VBM) at     -8.22896985 eV (relative to internal zero)
  | Occupation number:      2.00000000
  | K-point:      83 at    0.333333    0.333333    0.000000 (in units of recip. lattice)

  Lowest unoccupied state (CBM) at    -3.57700962 eV (relative to internal zero)
  | Occupation number:      0.00000000
  | K-point:       8 at    0.000000    0.500000    0.000000 (in units of recip. lattice)

  ESTIMATED overall HOMO-LUMO gap:      4.65196022 eV between HOMO at k-point 83 and LUMO at k-point 8
  | This appears to be an indirect band gap.
  | Smallest direct gap :      4.65810139 eV for k_point 83 at    0.000000    0.500000    0.000000 (in units of recip. lattice)
  The gap value is above 0.2 eV. Unless you are using a very sparse k-point grid,
  this system is most likely an insulator or a semiconductor.

  Total energy components:
  | Sum of eigenvalues            :         -91.86866659 Ha       -2499.87361014 eV
  | XC energy correction          :         -21.96932078 Ha        -597.81563492 eV
  | XC potential correction       :          28.22920827 Ha         768.15584043 eV
  | Free-atom electrostatic energy:         -70.84562249 Ha       -1927.80747368 eV
  | Hartree energy correction     :          -2.99534378 Ha         -81.50745122 eV
  | Entropy correction            :          -0.00000000 Ha          -0.00000000 eV
  | ---------------------------
  | Total energy                  :        -159.44974536 Ha       -4338.84832953 eV
  | Total energy, T -> 0          :        -159.44974536 Ha       -4338.84832953 eV  <-- do not rely on this value for anything but (periodic) metals
  | Electronic free energy        :        -159.44974536 Ha       -4338.84832953 eV

  Derived energy quantities:
  | Kinetic energy                :         159.34260505 Ha        4335.93289324 eV
  | Electrostatic energy          :        -296.82302963 Ha       -8076.96558785 eV
  | Energy correction for multipole
  | error in Hartree potential    :          -0.01736582 Ha          -0.47254813 eV
  | Sum of eigenvalues per atom                           :        -624.96840254 eV
  | Total energy (T->0) per atom                          :       -1084.71208238 eV  <-- do not rely on this value for anything but (periodic) metals
  | Electronic free energy per atom                       :       -1084.71208238 eV

  Self-consistency convergence accuracy:
  | Change of charge density      :  0.1367E+00
  | Change of sum of eigenvalues  :  0.7986E+01 eV
  | Change of total energy        :  0.1480E+00 eV

  End self-consistency iteration #     3       :  max(cpu_time)    wall_clock(cpu1)
  | Time for this iteration                    :        1.564 s           1.561 s
  | Charge density update                      :        0.932 s           0.928 s
  | Density mixing & preconditioning           :        0.036 s           0.033 s
  | Hartree multipole update                   :        0.004 s           0.002 s
  | Hartree multipole summation                :        0.144 s           0.140 s
  | Integration                                :        0.428 s           0.426 s
  | Solution of K.-S. eqns.                    :        0.032 s           0.032 s
  | Total energy evaluation                    :        0.004 s           0.000 s

  Partial memory accounting:
  | Current value for overall tracked memory usage on task 0  :          10.124 MB
  | Peak value for overall tracked memory usage on task 0     :          52.089 MB after allocating gradient_basis_wave
  | Largest tracked array allocation on task 0 so far         :          29.215 MB  when allocating hamiltonian_shell
  Note:  These values currently only include a subset of arrays which are explicitly tracked.
  The "true" memory usage will be greater.
------------------------------------------------------------

------------------------------------------------------------
          Begin self-consistency iteration #    4

  Date     :  20191128, Time     :  225413.965
------------------------------------------------------------
  Evaluating new KS density using the density matrix
  Evaluating density matrix
  Time summed over all CPUs for getting density from density matrix: real work       66.287 s, elapsed       72.660 s
  Integration grid: deviation in total charge (<rho> - N_e) =   1.001865E-12
  Pulay mixing of updated and previous charge densities.

  Evaluating partitioned Hartree potential by multipole expansion.
  | Analytical far-field extrapolation by fixed multipoles:
  | Hartree multipole sum: apparent total charge =   0.671303E-02
  Summing up the Hartree potential.
  Time summed over all CPUs for potential: real work        9.640 s, elapsed       10.306 s
  | RMS charge density error from multipole expansion :   0.103786E-01
  | Average real-space part of the electrostatic potential :      0.01381136 eV

  Integrating Hamiltonian matrix: batch-based integration.
  Time summed over all CPUs for integration: real work       30.632 s, elapsed       33.249 s

  Updating Kohn-Sham eigenvalues and eigenvectors using ELSI and the ELPA eigensolver.
  Finished Cholesky decomposition
  | Time :     0.001 s
  Finished transformation to standard eigenproblem
  | Time :     0.001 s
  Starting LAPACK eigensolver
  Finished solving standard eigenproblem
  | Time :     0.003 s
  Finished back-transformation of eigenvectors
  | Time :     0.000 s

  Obtaining occupation numbers and chemical potential using ELSI.
  | Chemical potential (Fermi level):    -3.17627248eV
[...]
  |  99.337689      0.001      0.001      0.001     -0.000      0.000      0.000
  | --------------------------------------------------------------
  | Partitioned atomic C6 coefficients and polarizabilities (a.u.)
  | --------------------------------------------------------------
  | ATOM   1  B   70.555083         17.413944
  | ATOM   2  B   70.555083         17.413944
  | ATOM   3  N   13.894921          3.485612
  | ATOM   4  N   13.894921          3.485612
  | --------------------------------------------------------------
  | Computing MBD@rsSCS energy...
  | --------------------------------------------------------------

  Total energy components:
  | Sum of eigenvalues            :         -89.97714792 Ha       -2448.40276818 eV
  | XC energy correction          :         -22.01302711 Ha        -599.00494468 eV
  | XC potential correction       :          28.28725243 Ha         769.73530236 eV
  | Free-atom electrostatic energy:         -70.78912455 Ha       -1926.27008652 eV
  | Hartree energy correction     :          -4.95506767 Ha        -134.83425166 eV
  | Entropy correction            :          -0.00000000 Ha          -0.00000000 eV
  | ---------------------------
  | Total energy                  :        -159.46405370 Ha       -4339.23767929 eV
  | Total energy, T -> 0          :        -159.46405370 Ha       -4339.23767929 eV  <-- do not rely on this value for anything but (periodic) metals
  | Electronic free energy        :        -159.46405370 Ha       -4339.23767929 eV

  Derived energy quantities:
  | Kinetic energy                :         158.98950509 Ha        4326.32455442 eV
  | Electrostatic energy          :        -296.42359280 Ha       -8066.09635842 eV
  | Energy correction for multipole
  | error in Hartree potential    :          -0.02632390 Ha          -0.71630990 eV
  | Sum of eigenvalues per atom                           :        -612.10069204 eV
  | Total energy (T->0) per atom                          :       -1084.80941982 eV  <-- do not rely on this value for anything but (periodic) metals
  | Electronic free energy per atom                       :       -1084.80941982 eV

  atomic forces [eV/Ang]:
  -----------------------
  atom #    1
   Hellmann-Feynman              :  0.134648E-02 -0.230144E-02 -0.410791E+00
   Ionic forces                  :  0.000000E+00  0.000000E+00  0.000000E+00
   Multipole                     :  0.157593E-04 -0.212226E-03  0.280505E-01
   Pulay + GGA                   :  0.153883E-03  0.174231E-02  0.336622E+00
   Van der Waals                 : -0.757278E-04  0.450922E-04  0.461192E-01
   ----------------------------------------------------------------
   Total forces(   1)            :  0.144040E-02 -0.726269E-03  0.946594E-06
  atom #    2
   Hellmann-Feynman              : -0.134648E-02  0.230144E-02  0.410791E+00
   Ionic forces                  :  0.000000E+00  0.000000E+00  0.000000E+00
   Multipole                     : -0.157593E-04  0.212226E-03 -0.280505E-01
   Pulay + GGA                   : -0.153884E-03 -0.174231E-02 -0.336622E+00
   Van der Waals                 :  0.757278E-04 -0.450921E-04 -0.461192E-01
   ----------------------------------------------------------------
   Total forces(   2)            : -0.144040E-02  0.726263E-03 -0.946540E-06
  atom #    3
   Hellmann-Feynman              :  0.131549E-02 -0.251331E-02 -0.119076E+00
   Ionic forces                  :  0.000000E+00  0.000000E+00  0.000000E+00
   Multipole                     : -0.305004E-04 -0.408662E-03  0.857516E-03
   Pulay + GGA                   :  0.226591E-03  0.213812E-02  0.149773E+00
   Van der Waals                 : -0.770209E-04  0.446859E-04 -0.314321E-01
   ----------------------------------------------------------------
   Total forces(   3)            :  0.143456E-02 -0.739163E-03  0.122139E-03
  atom #    4
   Hellmann-Feynman              : -0.131549E-02  0.251331E-02  0.119076E+00
   Ionic forces                  :  0.000000E+00  0.000000E+00  0.000000E+00
   Multipole                     :  0.305004E-04  0.408662E-03 -0.857517E-03
   Pulay + GGA                   : -0.226590E-03 -0.213812E-02 -0.149773E+00
   Van der Waals                 :  0.770209E-04 -0.446860E-04  0.314321E-01
   ----------------------------------------------------------------
   Total forces(   4)            : -0.143456E-02  0.739169E-03 -0.122140E-03


  Analytical stress tensor components [eV]         xx                  yy                  zz                  xy                  xz                  yz
  -----------------------------------------------------------------------------------------------------------------------------------------------------------
    Nuclear Hellmann-Feynman      :    -0.3929491677E+02   -0.3930324108E+02    0.2974343008E+01   -0.4459410597E-02   -0.2264443644E-04    0.3998261027E-03
    Multipole Hellmann-Feynman    :    -0.1230193400E+03   -0.1230276070E+03   -0.1518833720E+01   -0.7736405859E-02   -0.2986887414E-04    0.2704940957E-03
    On-site Multipole corrections :    -0.6108331580E-02   -0.6017620348E-02   -0.5817370151E-02   -0.5398675447E-07   -0.1178981849E-07    0.2746514185E-04
    Strain deriv. of the orbitals :     0.1617609838E+03    0.1617763423E+03   -0.1714644776E+01    0.1118561853E-01    0.6232982357E-04   -0.9354337267E-03
    vdW correction   :     0.5636771956E+00    0.5649463305E+00    0.2633046126E+00    0.1100670154E-02    0.4455947585E-05    0.1336561965E-05
  -----------------------------------------------------------------------------------------------------------------------------------------------------------
  Sum of all contributions        :     0.4295858284E-02    0.4422910928E-02   -0.1648245860E-02    0.9041824251E-04    0.1426067076E-04   -0.2363118245E-03

  +-------------------------------------------------------------------+
  |              Analytical stress tensor - Symmetrized               |
  |                  Cartesian components [eV/A**3]                   |
  +-------------------------------------------------------------------+
  |                x                y                z                |
  |                                                                   |
  |  x         0.00000790       0.00000017       0.00000003           |
  |  y         0.00000017       0.00000813      -0.00000043           |
  |  z         0.00000003      -0.00000043      -0.00000303           |
  |                                                                   |
  |  Pressure:      -0.00000433   [eV/A**3]                           |
  |                                                                   |
  +-------------------------------------------------------------------+

 * Warning: Stress tensor is anisotropic. Be aware that pressure is an isotropic quantity.

  Timings for VdW correction (Tkatchenko-Scheffler 2009 or later):
  | CPU time:        0.768 s, Wall clock time:        0.764 s.
  Removing unitary transformations (pure translations, rotations) from forces on atoms.
  Atomic forces before filtering:
  | Net force on center of mass :   0.845156E-09 -0.190838E-09 -0.108960E-08 eV/A
  Removing unitary transformations (rotations) from forces on lattice.
  Lattice forces before filtering:
  | Net torque relative to origin:   0.197693E-19  0.111919E-19  0.167216E-41 eV
  Atomic forces after filtering:
  | Net force on center of mass :   0.000000E+00  0.000000E+00  0.000000E+00 eV/A
  Lattice forces after filtering:
  | Net torque relative to origin:   0.197693E-19  0.111919E-19  0.167216E-41 eV

  Energy and forces in a compact form:
  | Total energy uncorrected      :         -0.433923767929025E+04 eV
  | Total energy corrected        :         -0.433923767929025E+04 eV  <-- do not rely on this value for anything but (periodic) metals
  | Electronic free energy        :         -0.433923767929025E+04 eV
  Total atomic forces (unitary forces cleaned) [eV/Ang]:
  |   1          0.144039551061437E-02         -0.726269203157214E-03          0.946866599667254E-06
  |   2         -0.144039621761321E-02          0.726263532873201E-03         -0.946267596450216E-06
  |   3          0.143456253453218E-02         -0.739163150567199E-03          0.122138910555293E-03
  |   4         -0.143456182753334E-02          0.739168820851212E-03         -0.122139509558510E-03

  ------------------------------------ 
  Start decomposition of the XC Energy 
  ------------------------------------ 
  X and C from original XC functional choice 
  Hartree-Fock Energy :          0.000000000 Ha              0.000000000 eV
  X Energy            :        -21.190191797 Ha           -576.614456630 eV
  C Energy            :         -0.822835312 Ha            -22.390488049 eV
  Total XC Energy     :        -22.013027109 Ha           -599.004944679 eV
  ------------------------------------ 
  LDA X and C from self-consistent density 
  X Energy LDA        :        -19.223639392 Ha           -523.101842974 eV
  C Energy LDA        :         -1.602834655 Ha            -43.615350092 eV
  ------------------------------------ 
  End decomposition of the XC Energy 
  ------------------------------------ 

------------------------------------------------------------
  Relaxation / MD: End force evaluation.       :  max(cpu_time)    wall_clock(cpu1)
  | Time for this force evaluation             :       41.308 s          41.305 s

------------------------------------------------------------
  Geometry optimization: Attempting to predict improved coordinates.

  +-------------------------------------------------------------------+
  | Generalized derivatives on lattice vectors [eV/A]                 |
  +-------------------------------------------------------------------+
  |lattice_vector       0.00173503       0.00105504      -0.00004875  |
  |lattice_vector       0.00004166       0.00203792      -0.00010888  |
  |lattice_vector       0.00000014      -0.00000236      -0.00001648  |
  +-------------------------------------------------------------------+
  | Forces on lattice vectors cleaned from atomic contributions [eV/A]|
  +-------------------------------------------------------------------+
  |lattice_vector      -0.00365164      -0.00007810      -0.00003329  |
  |lattice_vector       0.00187494      -0.00301486       0.00019098  |
  |lattice_vector       0.00000001       0.00000282       0.00001237  |
  +-------------------------------------------------------------------+
  | Projected forces for shape relaxation  [eV/A]                     |
  +-------------------------------------------------------------------+
  |lattice_vector      -0.00365164      -0.00000000       0.00000000  |
  |lattice_vector       0.00177421      -0.00307302       0.00000000  |
  |lattice_vector      -0.00000000      -0.00000000       0.00001237  |
  +-------------------------------------------------------------------+
  Removing unitary transformations (pure translations, rotations) from forces on atoms.
  Atomic forces before filtering:
  | Net force on center of mass :   0.000000E+00  0.000000E+00  0.000000E+00 eV/A
  Removing unitary transformations (rotations) from forces on lattice.
  Lattice forces before filtering:
  | Net torque relative to origin:   0.000000E+00  0.000000E+00 -0.737566E-18 eV
  Atomic forces after filtering:
  | Net force on center of mass :   0.000000E+00  0.000000E+00  0.000000E+00 eV/A
  Lattice forces after filtering:
  | Net torque relative to origin:   0.000000E+00  0.000000E+00 -0.737566E-18 eV
  || Forces on lattice vectors || =   0.365164E-02 eV/A.
  Net remaining forces (excluding translations, rotations) in present geometry:
  Maximum force component is  0.365164E-02 eV/A.
  Present geometry is converged.

------------------------------------------------------------
  Final atomic structure:
                         x [A]             y [A]             z [A]
  lattice_vector         2.50604608        0.00000000       -0.00000000
  lattice_vector        -1.25302629        2.17030519       -0.00000000
  lattice_vector        -0.00000000       -0.00000000      100.00001629

            atom        -0.00008532        1.44728413        2.15714718  B
            atom         1.25310511        0.72302106        5.55011783  B
            atom         0.00004462        1.44648069        5.55152774  N
            atom         1.25297517        0.72382450        2.15573727  N

  Fractional coordinates:
                         L1                L2                L3
       atom_frac         0.33339553        0.66685742        0.02157147  B
       atom_frac         0.66660447        0.33314258        0.05550117  B
       atom_frac         0.33326228        0.66648723        0.05551527  N
       atom_frac         0.66673772        0.33351277        0.02155737  N
------------------------------------------------------------

------------------------------------------------------------------------------
  Final output of selected total energy values:

  The following output summarizes some interesting total energy values
  at the end of a run (AFTER all relaxation, molecular dynamics, etc.).

  | Total energy of the DFT / Hartree-Fock s.c.f. calculation      :          -4339.237679290 eV
  | Final zero-broadening corrected energy (caution - metals only) :          -4339.237679290 eV
  | For reference only, the value of 1 Hartree used in FHI-aims is :             27.211384500 eV

  Before relying on these values, please be sure to understand exactly which
  total energy value is referred to by a given number. Different objects may
  all carry the same name 'total energy'. Definitions:

  Total energy of the DFT / Hartree-Fock s.c.f. calculation:
  | Note that this energy does not include ANY quantities calculated after the
  | s.c.f. cycle, in particular not ANY RPA, MP2, etc. many-body perturbation terms.

  Final zero-broadening corrected energy:
  | For metallic systems only, a broadening of the occupation numbers at the Fermi
  | level can be extrapolated back to zero broadening by an electron-gas inspired
  | formula. For all systems that are not real metals, this value can be
  | meaningless and should be avoided.

------------------------------------------------------------------------------
  Methods described in the following list of references were used in this FHI-aims run.
  If you publish the results, please make sure to cite these reference if they apply.
  FHI-aims is an academic code, and for our developers (often, Ph.D. students
  and postdocs), scientific credit in the community is essential.
  Thank you for helping us!

  For any use of FHI-aims, please cite:

    Volker Blum, Ralf Gehrke, Felix Hanke, Paula Havu, Ville Havu,
    Xinguo Ren, Karsten Reuter, and Matthias Scheffler
    'Ab initio molecular simulations with numeric atom-centered orbitals'
    Computer Physics Communications 180, 2175-2196 (2009)
    http://dx.doi.org/10.1016/j.cpc.2009.06.022


  For the analytical stress tensor used in your run, please cite:

    Franz Knuth, Christian Carbogno, Viktor Atalla, Volker Blum, Matthias Scheffler
    'All-electron formalism for total energy strain derivatives and
    stress tensor components for numeric atom-centered orbitals'
    Computer Physics Communications 190, 33-50 (2015).
    http://dx.doi.org/10.1016/j.cpc.2015.01.003


  The scalable eigensolver library ELPA was used in your run.
  ELPA is essential especially for large systems on hundreds or thousands of CPUs.
  For ELPA, please cite:

    Andreas Marek, Volker Blum, Rainer Johanni, Ville Havu, Bruno Lang,
    Thomas Auckenthaler, Alexander Heinecke, Hans-Joachim Bungartz, and Hermann Lederer,
    'The ELPA Library - Scalable Parallel Eigenvalue Solutions
    for Electronic Structure Theory and Computational Science'
    The Journal of Physics: Condensed Matter 26, 213201 (2014).
    http://dx.doi.org/10.1088/0953-8984/26/21/213201


  The ELSI infrastructure was used in your run to solve the Kohn-Sham electronic structure.
  Please check out http://elsi-interchange.org to learn more.
  If scalability is important for your project, please acknowledge ELSI by citing:

    V. W-z. Yu, F. Corsetti, A. Garcia, W. P. Huhn, M. Jacquelin, W. Jia,
    B. Lange, L. Lin, J. Lu, W. Mi, A. Seifitokaldani, A. Vazquez-Mayagoitia,
    C. Yang, H. Yang, and V. Blum
    'ELSI: A unified software interface for Kohn-Sham electronic structure solvers'
    Computer Physics Communications 222, 267-285 (2018).
    http://dx.doi.org/10.1016/j.cpc.2017.09.007


  For the real-space grid partitioning and parallelization used in this calculation, please cite:

    Ville Havu, Volker Blum, Paula Havu, and Matthias Scheffler,
    'Efficient O(N) integration for all-electron electronic structure calculation'
    'using numerically tabulated basis functions'
    Journal of Computational Physics 228, 8367-8379 (2009).
    http://dx.doi.org/10.1016/j.jcp.2009.08.008

  Of course, there are many other important community references, e.g., those cited in the
  above references. Our list is limited to references that describe implementations in the
  FHI-aims code. The reason is purely practical (length of this list) - please credit others as well.

------------------------------------------------------------
          Leaving FHI-aims.
          Date     :  20191128, Time     :  230311.785

          Computational steps:
          | Number of self-consistency cycles          :          138
          | Number of SCF (re)initializations          :           12
          | Number of relaxation steps                 :           11

          Detailed time accounting                     :  max(cpu_time)    wall_clock(cpu1)
          | Total time                                 :      544.836 s         544.465 s
          | Preparation time                           :        0.196 s           0.199 s
          | Boundary condition initalization           :        7.408 s           7.338 s
          | Grid partitioning                          :        0.824 s           0.796 s
          | Preloading free-atom quantities on grid    :        1.296 s           1.285 s
          | Free-atom superposition energy             :        0.128 s           0.105 s
          | Total time for integrations                :       70.084 s          69.772 s
          | Total time for solution of K.-S. equations :        4.520 s           4.503 s
          | Total time for EV reorthonormalization     :        0.068 s           0.052 s
          | Total time for density & force components  :      415.072 s         414.454 s
          | Total time for mixing & preconditioning    :        3.528 s           3.300 s
          | Total time for Hartree multipole update    :        0.552 s           0.241 s
          | Total time for Hartree multipole sum       :       32.912 s          32.611 s
          | Total time for total energy evaluation     :        0.512 s           0.030 s
          | Total time for scaled ZORA corrections     :        0.000 s           0.000 s
          | Total time for vdW correction              :        8.824 s           8.791 s

          Partial memory accounting:
          | Residual value for overall tracked memory usage across tasks :           0.000 MB (should be 0.000 MB)
          | Peak values for overall tracked memory usage (after allocating wave_pulay):
          |   Minimum:      106.484 MB (on task 33)
          |   Maximum:      111.487 MB (on task 40)
          |   Average:      108.982 MB
          | Largest tracked array allocation (density_matrix_con):
          |   Minimum:       32.643 MB (on task 33)
          |   Maximum:       35.213 MB (on task 40)
          |   Average:       33.718 MB
          Note:  These values currently only include a subset of arrays which are explicitly tracked.
          The "true" memory usage will be greater.

          Have a nice day.
------------------------------------------------------------
