  MPI-parallelism will be employed.
------------------------------------------------------------
          Invoking FHI-aims ...
          Version 171221_1
          Compiled on 2018/11/06 at 11:18:49 on host headnode.

          When using FHI-aims, please cite the following reference:

          Volker Blum, Ralf Gehrke, Felix Hanke, Paula Havu,
          Ville Havu, Xinguo Ren, Karsten Reuter, and Matthias Scheffler,
          'Ab Initio Molecular Simulations with Numeric Atom-Centered Orbitals',
          Computer Physics Communications 180, 2175-2196 (2009)

          For any questions about FHI-aims, please visit the aimsclub website
          with its forums and wiki. Contributions to both the forums and the
          wiki are warmly encouraged - they are for you, and everyone is welcome there.

------------------------------------------------------------



  Date     :  20191128, Time     :  015254.407
  Time zero on CPU 1             :   0.448000000000000E+00  s.
  Internal wall clock time zero  :           344137974.407  s.

  FHI-aims created a unique identifier for this run for later identification
  aims_uuid : 68D2A6D3-36AE-4D0F-A866-6992A6842C12

  Using       80 parallel tasks.
  Task        0 on host t030 reporting.
  Task        1 on host t030 reporting.
  Task        2 on host t030 reporting.
  Task        3 on host t030 reporting.
  Task        4 on host t030 reporting.
  Task        5 on host t030 reporting.
  Task        6 on host t030 reporting.
  Task        7 on host t030 reporting.
  Task        8 on host t030 reporting.
  Task        9 on host t030 reporting.
  Task       10 on host t030 reporting.
  Task       11 on host t030 reporting.
  Task       12 on host t030 reporting.
  Task       13 on host t030 reporting.
  Task       14 on host t030 reporting.
  Task       15 on host t030 reporting.
  Task       16 on host t030 reporting.
  Task       17 on host t030 reporting.
  Task       18 on host t030 reporting.
  Task       19 on host t030 reporting.
  Task       20 on host t029 reporting.
  Task       21 on host t029 reporting.
  Task       22 on host t029 reporting.
  Task       23 on host t029 reporting.
  Task       24 on host t029 reporting.
  Task       25 on host t029 reporting.
  Task       26 on host t029 reporting.
  Task       27 on host t029 reporting.
  Task       28 on host t029 reporting.
  Task       29 on host t029 reporting.
  Task       30 on host t029 reporting.
  Task       31 on host t029 reporting.
  Task       32 on host t029 reporting.
  Task       33 on host t029 reporting.
  Task       34 on host t029 reporting.
  Task       35 on host t029 reporting.
  Task       36 on host t029 reporting.
  Task       37 on host t029 reporting.
  Task       38 on host t029 reporting.
  Task       39 on host t029 reporting.
  Task       40 on host t024 reporting.
  Task       41 on host t024 reporting.
  Task       42 on host t024 reporting.
  Task       43 on host t024 reporting.
  Task       44 on host t024 reporting.
  Task       45 on host t024 reporting.
  Task       46 on host t024 reporting.
  Task       47 on host t024 reporting.
  Task       48 on host t024 reporting.
  Task       49 on host t024 reporting.
  Task       50 on host t024 reporting.
  Task       51 on host t024 reporting.
  Task       52 on host t024 reporting.
  Task       53 on host t024 reporting.
  Task       54 on host t024 reporting.
  Task       55 on host t024 reporting.
  Task       56 on host t024 reporting.
  Task       57 on host t024 reporting.
  Task       58 on host t024 reporting.
  Task       59 on host t024 reporting.
  Task       60 on host t021 reporting.
  Task       61 on host t021 reporting.
  Task       62 on host t021 reporting.
  Task       63 on host t021 reporting.
  Task       64 on host t021 reporting.
  Task       65 on host t021 reporting.
  Task       66 on host t021 reporting.
  Task       67 on host t021 reporting.
  Task       68 on host t021 reporting.
  Task       69 on host t021 reporting.
  Task       70 on host t021 reporting.
  Task       71 on host t021 reporting.
  Task       72 on host t021 reporting.
  Task       73 on host t021 reporting.
  Task       74 on host t021 reporting.
  Task       75 on host t021 reporting.
  Task       76 on host t021 reporting.
  Task       77 on host t021 reporting.
  Task       78 on host t021 reporting.
  Task       79 on host t021 reporting.

  Performing system and environment tests:
  | Environment variable OMP_NUM_THREADS correctly set to 1.
  | Stacksize not measured: no C compiler
  | Checking for scalapack...
  | Testing pdtran()...
  | All pdtran() tests passed.

  Obtaining array dimensions for all initial allocations:
  
  -----------------------------------------------------------------------
  Parsing control.in (first pass over file, find array dimensions only).
  The contents of control.in will be repeated verbatim below
  unless switched off by setting 'verbatim_writeout .false.' .
  in the first line of control.in .
  -----------------------------------------------------------------------
  
  #===============================================================================
  # FHI-aims file: ./control.in
  # Created using the Atomic Simulation Environment (ASE)
  # Wed Nov 27 20:14:07 2019
  #
  # List of parameters used to initialize the calculator:
  #     relativistic : ('atomic_zora', 'scalar')
  #     adjust_scf : once 2
  #     spin : none
  #     xc : pbe
  #     species_dir : /chemsoft/FHI-aims/stable/species_defaults/tight
  #     k_grid : [18, 18, 1]
  #===============================================================================
  relativistic                       atomic_zora scalar
  adjust_scf                         once 2
  ### geometry optimisation section
  relax_geometry    bfgs    1E-2
  relax_unit_cell       fixed_angles
  spin                               none
  xc                                 pbe
  many_body_dispersion
  k_grid                             18 18 1
  #===============================================================================
  
  ################################################################################
  #
  #  FHI-aims code project
  # Volker Blum, Fritz Haber Institute Berlin, 2009
  #
  #  Suggested "tight" defaults for Se atom (to be pasted into control.in file)
  #
  ################################################################################
    species        Se
  #     global species definitions
      nucleus             34
      mass                78.96
  #
      l_hartree           6
  #
      cut_pot             4.0          2.0  1.0
      basis_dep_cutoff    1e-4
  #
      radial_base         55 7.0
      radial_multiplier   2
      angular_grids       specified
        division   0.0830  110
        division   0.1357  194
        division   0.7377  302
        division   0.8610  434
  #      division   0.9640  590
  #      division   1.0773  770
  #      division   2.5539  974
  #      outer_grid  974
        outer_grid  434
  ################################################################################
  #
  #  Definition of "minimal" basis
  #
  ################################################################################
  #     valence basis states
      valence      4  s   2.
      valence      4  p   4.
      valence      3  d  10.
  #     ion occupancy
      ion_occ      4  s   1.
      ion_occ      4  p   3.
      ion_occ      3  d  10.
  ################################################################################
  #
  #  Suggested additional basis functions. For production calculations,
  #  uncomment them one after another (the most important basis functions are
  #  listed first).
  #
  #  Constructed for dimers: 1.85 A, 2.15 A, 2.50 A, 3.00 A, 4.00 A
  #
  ################################################################################
  #  "First tier" - improvements: -336.21 meV to -36.85 meV
       hydro 3 d 4.3
       hydro 2 p 1.6
       hydro 4 f 7.2
       ionic 4 s auto
  #  "Second tier" - improvements: -14.39 meV to -1.49 meV
       hydro 5 g 10.4
       hydro 4 p 4.5
       hydro 4 d 6.2
       hydro 4 f 11.2
       hydro 1 s 0.65
       hydro 6 h 15.2
  #  "Third tier" - improvements: -0.46 meV and below
  #     hydro 5 g 14.4
  #     ionic 4 d auto
  #     hydro 4 f 22.4
  #     hydro 5 f 7.4
  #     hydro 5 p 8
  #     hydro 5 s 9.4
  #  "Fourth tier" - improvements: -0.12 meV and below
  #     hydro 5 d 11.6
  #     hydro 6 h 18
  #     hydro 4 p 4
  #     hydro 5 f 16
  #     hydro 4 s 3.9
  #
  #
  ################################################################################
  #
  #  FHI-aims code project
  # Volker Blum, Fritz Haber Institute Berlin, 2009
  #
  #  Suggested "tight" defaults for Pd atom (to be pasted into control.in file)
  #
  ################################################################################
    species        Pd
  #     global species definitions
      nucleus             46
      mass                106.42
  #
      l_hartree           6
  #
      cut_pot             4.0  2.0  1.0
      basis_dep_cutoff    1e-4
  #
      radial_base         62 7.0
      radial_multiplier   2
      angular_grids specified
        division   0.3627   50
        division   0.7349  110
        division   1.0624  194
        division   1.2496  302
        division   1.6740  434
  #      division   2.0126  590
  #      division   2.0830  770
  #      division   2.7936 1202
  #       outer_grid  974
        outer_grid  434
  ################################################################################
  #
  #  Definition of "minimal" basis
  #
  ################################################################################
  #     valence basis states
      valence      5  s   1.
      valence      4  p   6.
      valence      4  d   9.
  #     ion occupancy
      ion_occ     5  s   0.
      ion_occ     4  p   6.
      ion_occ     4  d   8.
  ################################################################################
  #
  #  Suggested additional basis functions. For production calculations,
  #  uncomment them one after another (the most important basis functions are
  #  listed first).
  #
  #  Constructed for dimers: 2.0 A, 2.275 A, 2.75 A, 3.75 A
  #
  ################################################################################
  #  "First tier" - max. impr. -120.76  meV, min. impr. -5.71 meV
       ionic 5 p auto
       hydro 4 f 8
       hydro 5 g 10
       hydro 3 s 2.6
       hydro 3 d 2.5
  #  "Second tier" - max. impr. -5.00  meV, min. impr. -0.62 meV
       hydro 5 f 17.2
       hydro 6 h 14
       hydro 4 d 4
       hydro 5 f 7.6
       hydro 3 p 3.3
       hydro 4 s 9.4
  #  "Third tier" - max. impr. -0.54  meV, min. impr. -0.14 meV
  #     hydro 4 f 20
  #     hydro 5 g 12.8
  #     hydro 5 d 9.8
  #     hydro 6 h 15.2
  #     hydro 5 s 10
  #     hydro 6 p 9.8
  #  "Fourth tier" - max. impr. -0.15  meV, min. impr. -0.05 meV
  #     hydro 5 f 9.2
  #     hydro 2 s 5.6
  #     hydro 5 f 43.2
  #     hydro 5 d 13.2
  #     hydro 5 g 14
  #     hydro 4 p 4.7
  
  -----------------------------------------------------------------------
  Completed first pass over input file control.in .
  -----------------------------------------------------------------------
  
  
  -----------------------------------------------------------------------
  Parsing geometry.in (first pass over file, find array dimensions only).
  The contents of geometry.in will be repeated verbatim below
  unless switched off by setting 'verbatim_writeout .false.' .
  in the first line of geometry.in .
  -----------------------------------------------------------------------
  
  #=======================================================
  # FHI-aims file: ./geometry.in
  # Created using the Atomic Simulation Environment (ASE)
  # Wed Nov 27 20:14:07 2019
  #=======================================================
  lattice_vector 5.6871274700000001 0.0000000000000000 0.0000000000000000
  lattice_vector 0.0000000000000000 5.8508163099999999 0.0000000000000000
  lattice_vector 0.0000000000000000 0.0000000000000000 100.0000000000000000
  atom -2.2272097000000000 0.6856326300000000 2.7932058099999999 Se
  atom -0.6163540400000000 -2.2397755199999998 2.7932058099999999 Se
  atom -0.0080985700000000 -0.0032652300000000 2.0093191899999998 Pd
  atom 2.8516623000000001 2.9221429300000001 2.0093191899999998 Pd
  atom 0.6096464000000000 2.2430407500000000 1.2764513300000000 Se
  atom 2.2339173400000001 -0.6823674000000000 1.2764513300000000 Se
  atom -0.6096464000000000 -0.6823674000000000 -1.2764513300000000 Se
  atom -2.2339173400000001 2.2430407500000000 -1.2764513300000000 Se
  atom 2.8354651600000000 -0.0032652300000000 -2.0093191899999998 Pd
  atom 0.0080985700000000 2.9221429300000001 -2.0093191899999998 Pd
  atom 2.2272097000000000 -2.2397755199999998 -2.7932058099999999 Se
  atom 0.6163540400000000 0.6856326300000000 -2.7932058099999999 Se
  
  -----------------------------------------------------------------------
  Completed first pass over input file geometry.in .
  -----------------------------------------------------------------------
  

  Basic array size parameters:
  | Number of species                 :        2
  | Number of atoms                   :       12
  | Number of lattice vectors         :        3
  | Max. basis fn. angular momentum   :        5
  | Max. atomic/ionic basis occupied n:        5
  | Max. number of basis fn. types    :        3
  | Max. radial fns per species/type  :       10
  | Max. logarithmic grid size        :     1444
  | Max. radial integration grid size :      125
  | Max. angular integration grid size:      434
  | Max. angular grid division number :        8
  | Radial grid for Hartree potential :     1444
  | Number of spin channels           :        1

------------------------------------------------------------
          Reading file control.in.
------------------------------------------------------------
  Scalar relativistic treatment of kinetic energy: on-site free-atom approximation to ZORA.
  S.C.F. convergence parameters will be adjusted in iteration number     2 of the first full s.c.f. cycle only.
  Geometry relaxation: Modified BFGS - TRM (trust radius method, i.e., trusted quadratic extrapolation).
  Convergence accuracy for geometry relaxation: Maximum force <   0.100000E-01 eV/A.
  Spin treatment: No spin polarisation.
  XC: Using PBE gradient-corrected functionals.
  Using the default MBD implementation with analytical forces
  Found k-point grid:        18        18         1
 
  Reading configuration options for species Se                  .
  | Found nuclear charge :  34.0000
  | Found atomic mass :    78.9600000000000      amu
  | Found l_max for Hartree potential  :   6
  | Found cutoff potl. onset [A], width [A], scale factor :    4.00000    2.00000    1.00000
  | Threshold for basis-dependent cutoff potential is   0.100000E-03
  | Found data for basic radial integration grid :    55 points, outermost radius =    7.000 A
  | Found multiplier for basic radial grid :   2
  | Found angular grid specification: user-specified.
  | Specified grid contains     5 separate shells.
  | Check grid settings after all constraints further below.
  | Found free-atom valence shell :  4 s   2.000
  | Found free-atom valence shell :  4 p   4.000
  | Found free-atom valence shell :  3 d  10.000
  | Found free-ion valence shell :  4 s   1.000
  | Found free-ion valence shell :  4 p   3.000
  | Found free-ion valence shell :  3 d  10.000
  | Found hydrogenic basis function :  3 d   4.300
  | Found hydrogenic basis function :  2 p   1.600
  | Found hydrogenic basis function :  4 f   7.200
  | Found ionic basis function :  4 s , default cutoff radius.
  | Found hydrogenic basis function :  5 g  10.400
  | Found hydrogenic basis function :  4 p   4.500
  | Found hydrogenic basis function :  4 d   6.200
  | Found hydrogenic basis function :  4 f  11.200
  | Found hydrogenic basis function :  1 s   0.650
  | Found hydrogenic basis function :  6 h  15.200
  Species Se                  : Missing cutoff potential type.
  Defaulting to exp(1/x)/(1-x)^2 type cutoff potential.
  Species Se: No 'logarithmic' tag. Using default grid for free atom:
  | Default logarithmic grid data [bohr] : 0.1000E-03 0.1000E+03 0.1012E+01
  | Will include ionic basis functions of  2.0-fold positive Se                   ion.
  Species Se: On-site basis accuracy parameter (for Gram-Schmidt orthonormalisation) not specified.
  Using default value basis_acc =  0.1000000E-03.
  Species Se                  : Using default innermost maximum threshold i_radial=  2 for radial functions.
  Species Se                  : Default cutoff onset for free atom density etc. : 0.40000000E+01 AA.
  Species Se                  : Basic radial grid will be enhanced according to radial_multiplier =   2, to contain   111 grid points.
 
  Reading configuration options for species Pd                  .
  | Found nuclear charge :  46.0000
  | Found atomic mass :    106.420000000000      amu
  | Found l_max for Hartree potential  :   6
  | Found cutoff potl. onset [A], width [A], scale factor :    4.00000    2.00000    1.00000
  | Threshold for basis-dependent cutoff potential is   0.100000E-03
  | Found data for basic radial integration grid :    62 points, outermost radius =    7.000 A
  | Found multiplier for basic radial grid :   2
  | Found angular grid specification: user-specified.
  | Specified grid contains     6 separate shells.
  | Check grid settings after all constraints further below.
  | Found free-atom valence shell :  5 s   1.000
  | Found free-atom valence shell :  4 p   6.000
  | Found free-atom valence shell :  4 d   9.000
  | Found free-ion valence shell :  5 s   0.000
  | Found free-ion valence shell :  4 p   6.000
  | Found free-ion valence shell :  4 d   8.000
  | Found ionic basis function :  5 p , default cutoff radius.
  | Found hydrogenic basis function :  4 f   8.000
  | Found hydrogenic basis function :  5 g  10.000
  | Found hydrogenic basis function :  3 s   2.600
  | Found hydrogenic basis function :  3 d   2.500
  | Found hydrogenic basis function :  5 f  17.200
  | Found hydrogenic basis function :  6 h  14.000
  | Found hydrogenic basis function :  4 d   4.000
  | Found hydrogenic basis function :  5 f   7.600
  | Found hydrogenic basis function :  3 p   3.300
  | Found hydrogenic basis function :  4 s   9.400
  Species Pd                  : Missing cutoff potential type.
  Defaulting to exp(1/x)/(1-x)^2 type cutoff potential.
  Species Pd: No 'logarithmic' tag. Using default grid for free atom:
  | Default logarithmic grid data [bohr] : 0.1000E-03 0.1000E+03 0.1012E+01
  | Will include ionic basis functions of  2.0-fold positive Pd                   ion.
  Species Pd: On-site basis accuracy parameter (for Gram-Schmidt orthonormalisation) not specified.
  Using default value basis_acc =  0.1000000E-03.
  Species Pd                  : Using default innermost maximum threshold i_radial=  2 for radial functions.
  Species Pd                  : Default cutoff onset for free atom density etc. : 0.40000000E+01 AA.
  Species Pd                  : Basic radial grid will be enhanced according to radial_multiplier =   2, to contain   125 grid points.
  | MBD: Using the same k-grid sampling as DFT
 
  Finished reading input file 'control.in'. Consistency checks are next.
 
  MPI_IN_PLACE appears to work with this MPI implementation.
  | Keeping use_mpi_in_place .true. (see manual).
  Target number of points in a grid batch is not set. Defaulting to  100
  Method for grid partitioning is not set. Defaulting to parallel hash+maxmin partitioning.
  Batch size limit is not set. Defaulting to    200
  By default, will store active basis functions for each batch.
  If in need of memory, prune_basis_once .false. can be used to disable this option.
  communication_type for Hartree potential was not specified.
  Defaulting to calc_hartree .
  Defaulting to Pulay charge density mixer.
  Pulay mixer: Number of relevant iterations not set.
  Defaulting to    8 iterations.
  Pulay mixer: Number of initial linear mixing iterations not set.
  Defaulting to    0 iterations.
  Work space size for distributed Hartree potential not set.
  Defaulting to   0.200000E+03 MB.
  Mixing parameter for charge density mixing has not been set.
  Using default: charge_mix_param =     0.0500.
  The mixing parameter will be adjusted in iteration number     2 of the first full s.c.f. cycle only.
  Algorithm-dependent basis array size parameters:
  | n_max_pulay                         :        8
 * Notice: The s.c.f. convergence criterion sc_accuracy_rho was not provided.
 * We used to stop in this case, and ask the user to provide reasonable
 * scf convergence criteria. However, this led some users to employ criteria
 * that led to extremely long run times, e.g., for simple relaxation.
 * We now preset a default value for sc_accuracy_rho if it is not set.
 * You may still wish to check if this setting is too tight or too loose for your needs.
 * Based on n_atoms, FHI-aims chose sc_accuracy_rho =  0.200000E-05 .
  Maximum number of self-consistency iterations not provided.
  Presetting  1000 iterations.
  Presetting      1001 iterations before the initial mixing cycle
  is restarted anyway using the sc_init_iter criterion / keyword.
  Presetting a factor      1.000 between actual scf density residual
  and density convergence criterion sc_accuracy_rho below which sc_init_iter
  takes no effect.
 * No s.c.f. convergence criteria (sc_accuracy_*) were provided in control.in.
 * The run will proceed with a reasonable default guess, but please check whether.
 * the s.c.f. cycles seem to take too much or too little time.
  No maximum number of relaxation steps, defaulting to     1000
  Default initial Hessian is Lindh matrix (thres = 15.00) plus  0.200000E+01 eV/A^2 times unity.
  No maximum energy tolerance for TRM/BFGS moves, defaulting to   0.200000E-03
  No harmonic length scale. Defaulting to   0.250000E-01 A.
  No trust radius initializer. Defaulting to   0.200000E+00 A.
  Unit cell relaxation: Restricted relaxation with fixed angles between lattice vectors.
  Unit cell relaxation: Analytical stress will be used.
  Analytical stress will be computed.
  Analytical stress calculation: Only the upper triangle is calculated.
                                 Final output is symmetrized.
  Analytical stress calculation: scf convergence accuracy of stress not set.
                                 Analytical stress self-consistency will not be checked explicitly.
                                 Be sure to set other criteria like sc_accuracy_rho tight enough.
  Force calculation: scf convergence accuracy of forces not set.
  Defaulting to 'sc_accuracy_forces not_checked'.
  Handling of forces: Unphysical translation and rotation will be removed from forces.
  No accuracy limit for integral partition fn. given. Defaulting to  0.1000E-14.
  No threshold value for u(r) in integrations given. Defaulting to  0.1000E-05.
  No occupation type (smearing scheme) given. Defaulting to Gaussian broadening, width =  0.1000E-01 eV.
  The width will be adjusted in iteration number     2 of the first full s.c.f. cycle only.
  S.C.F. convergence parameters will be adjusted in iteration number     2 of the first full s.c.f. cycle only.
  No accuracy for occupation numbers given. Defaulting to  0.1000E-12.
  No threshold value for occupation numbers given. Defaulting to  0.0000E+00.
  No accuracy for fermi level given. Defaulting to  0.1000E-19.
  Maximum # of iterations to find E_F not set. Defaulting to  200.
  Preferred method for the eigenvalue solver ('KS_method') not specified in 'control.in'.
  Defaulting to serial version, 'lapack_fast', since more k-points than CPUs available.
  Will not use alltoall communication since running on < 1024 CPUs.
  Threshold for basis singularities not set.
  Default threshold for basis singularities:  0.1000E-04
  partition_type (choice of integration weights) for integrals was not specified.
  | Using a version of the partition function of Stratmann and coworkers ('stratmann_smoother').
  | At each grid point, the set of atoms used to build the partition table is smoothly restricted to
  | only those atoms whose free-atom density would be non-zero at that grid point.
  Partitioning for Hartree potential was not defined. Using partition_type for integrals.
  | Adjusted default value of keyword multip_moments_threshold to:       0.10000000E-11
  | This value may affect high angular momentum components of the Hartree potential in periodic systems.
  Angular momentum expansion for Kerker preconditioner not set explicitly.
  | Using default value of   0
  No explicit requirement for turning off preconditioner.
  | By default, it will be turned off when the charge convergence reaches
  | sc_accuracy_rho  =   0.200000E-05
  No special mixing parameter while Kerker preconditioner is on.
  Using default: charge_mix_param =     0.0500.
  No q(lm)/r^(l+1) cutoff set for long-range Hartree potential.
  | Using default value of  0.100000E-09 .
  | Verify using the multipole_threshold keyword.
  Defaulting to new monopole extrapolation.
  Density update method: automatic selection selected.
  Using density matrix based charge density update.
  Using density matrix based charge density update.
  Using packed matrix style: index .
  Geometry relaxation: A file "geometry.in.next_step" is written out by default after each step.
  | This file contains the geometry of the current relaxation step as well as
  | the current Hessian matrix needed to restart the relaxation algorithm.
  | If you do not want part or all of this information, use the keywords
  | "write_restart_geometry" or "hessian_to_restart_geometry" to switch the output off.
  Defaulting to use time-reversal symmetry for k-point grid.
------------------------------------------------------------


------------------------------------------------------------
          Reading geometry description geometry.in.
------------------------------------------------------------
  Input structure read successfully.
  The structure contains       12 atoms,  and a total of        456.000 electrons.

  Input geometry:
  | Unit cell:
  |        5.68712747        0.00000000        0.00000000
  |        0.00000000        5.85081631        0.00000000
  |        0.00000000        0.00000000      100.00000000
  | Atomic structure:
  |       Atom                x [A]            y [A]            z [A]
  |    1: Species Se           -2.22720970        0.68563263        2.79320581
  |    2: Species Se           -0.61635404       -2.23977552        2.79320581
  |    3: Species Pd           -0.00809857       -0.00326523        2.00931919
  |    4: Species Pd            2.85166230        2.92214293        2.00931919
  |    5: Species Se            0.60964640        2.24304075        1.27645133
  |    6: Species Se            2.23391734       -0.68236740        1.27645133
  |    7: Species Se           -0.60964640       -0.68236740       -1.27645133
  |    8: Species Se           -2.23391734        2.24304075       -1.27645133
  |    9: Species Pd            2.83546516       -0.00326523       -2.00931919
  |   10: Species Pd            0.00809857        2.92214293       -2.00931919
  |   11: Species Se            2.22720970       -2.23977552       -2.79320581
  |   12: Species Se            0.61635404        0.68563263       -2.79320581

  Lattice parameters for 3D lattice (in Angstroms) :     5.687127    5.850816  100.000000
  Angle(s) between unit vectors (in degrees)      :    90.000000   90.000000   90.000000

  |

  | The smallest distance between any two atoms is         2.38223536 AA.
  |
  | The first atom of this pair is atom number                      1 .
  | The second atom of this pair is atom number                     6 .
  | Wigner-Seitz cell of the first atom image           1     0     0 .
  | (The Wigner-Seitz cell of the second atom is 0 0 0  by definition.)

  Quantities derived from the lattice vectors:
  | Reciprocal lattice vector 1:  1.104808  0.000000  0.000000
  | Reciprocal lattice vector 2:  0.000000  1.073899  0.000000
  | Reciprocal lattice vector 3:  0.000000  0.000000  0.062832
  | Unit cell volume                               :   0.332743E+04  A^3

  Range separation radius for Ewald summation (hartree_convergence_parameter):      5.00000000 bohr.

  Fractional coordinates:
                         L1                L2                L3
       atom_frac        -0.39162296        0.11718581        0.02793206  Se
       atom_frac        -0.10837704       -0.38281419        0.02793206  Se
       atom_frac        -0.00142402       -0.00055808        0.02009319  Pd
       atom_frac         0.50142402        0.49944192        0.02009319  Pd
       atom_frac         0.10719760        0.38337227        0.01276451  Se
       atom_frac         0.39280240       -0.11662773        0.01276451  Se
       atom_frac        -0.10719760       -0.11662773       -0.01276451  Se
       atom_frac        -0.39280240        0.38337227       -0.01276451  Se
       atom_frac         0.49857598       -0.00055808       -0.02009319  Pd
       atom_frac         0.00142402        0.49944192       -0.02009319  Pd
       atom_frac         0.39162296       -0.38281419       -0.02793206  Se
       atom_frac         0.10837704        0.11718581       -0.02793206  Se

  Number of empty states per atom not set in control.in - providing a guess from actual geometry.
  | Total number of empty states used during s.c.f. cycle:       66
  If you use a very high smearing, use empty_states (per atom!) in control.in to increase this value.

  Structure-dependent array size parameters: 
  | Maximum number of distinct radial functions  :       39
  | Maximum number of basis functions            :      892
  | Number of Kohn-Sham states (occupied + empty):      294
------------------------------------------------------------

------------------------------------------------------------
          Preparing all fixed parts of the calculation.
------------------------------------------------------------
  Determining machine precision:
    2.225073858507201E-308
  Setting up grids for atomic and cluster calculations.

  Creating wave function, potential, and density for free atoms.

  Species: Se

  List of occupied orbitals and eigenvalues:
    n    l              occ      energy [Ha]    energy [eV]
    1    0           2.0000      -466.337810    -12689.6975
    2    0           2.0000       -59.202598     -1610.9847
    3    0           2.0000        -7.847116      -213.5309
    4    0           2.0000        -0.634372       -17.2621
    2    1           6.0000       -52.061107     -1416.6548
    3    1           6.0000        -5.620941      -152.9536
    4    1           4.0000        -0.238469        -6.4891
    3    2          10.0000        -1.951949       -53.1152


  Species: Pd

  List of occupied orbitals and eigenvalues:
    n    l              occ      energy [Ha]    energy [eV]
    1    0           2.0000      -913.269104    -24851.3168
    2    0           2.0000      -130.434372     -3549.2998
    3    0           2.0000       -23.521804      -640.0609
    4    0           2.0000        -3.256918       -88.6253
    5    0           1.0000        -0.157260        -4.2793
    2    1           6.0000      -116.910756     -3181.3035
    3    1           6.0000       -19.103344      -519.8284
    4    1           6.0000        -1.998052       -54.3697
    3    2          10.0000       -12.098182      -329.2083
    4    2           9.0000        -0.243389        -6.6230

  Creating fixed part of basis set: Ionic, confined, hydrogenic.
 
  Se                   ion:

  List of free ionic orbitals and eigenvalues:
    n    l      energy [Ha]    energy [eV]
    1    0      -467.261007    -12714.8189
    2    0       -60.104893     -1635.5374
    3    0        -8.743714      -237.9286
    4    0        -1.414053       -38.4783
    2    1       -52.964156     -1441.2280
    3    1        -6.516916      -177.3343
    4    1        -0.961869       -26.1738
    3    2        -2.844511       -77.4031


  List of ionic basis orbitals and eigenvalues:
    n    l      energy [Ha]    energy [eV]    outer radius [A]
    4    0        -1.414046       -38.4782       4.083166

 
  Se                   hydrogenic:
 
  List of hydrogenic basis orbitals: 
    n    l      effective z      eigenvalue [eV]  inner max. [A]     outer max. [A]     outer radius [A]   
    3    2         4.300000       -27.9518           1.103845           1.103845           5.278265
    2    1         1.600000        -8.6828           1.326010           1.326010           5.475439
    4    3         7.200000       -44.0822           1.173422           1.173422           4.965294
    5    4        10.400000       -58.8635           1.278259           1.278259           4.904963
    4    1         4.500000       -16.9509           0.333121           2.727671           5.475439
    4    2         6.200000       -32.6848           0.577455           1.800022           5.408909
    4    3        11.200000      -106.6686           0.755651           0.755651           3.657749
    1    0         0.650000        -5.7375           0.813162           0.813162           5.408909
    6    5        15.200000       -87.3182           1.247385           1.247385           4.614127
 
 
  Pd                   ion:

  List of free ionic orbitals and eigenvalues:
    n    l      energy [Ha]    energy [eV]
    1    0      -914.099884    -24873.9234
    2    0      -131.248265     -3571.4470
    3    0       -24.332473      -662.1203
    4    0        -4.059276      -110.4585
    2    1      -117.724296     -3203.4411
    3    1       -19.913908      -541.8850
    4    1        -2.795328       -76.0648
    3    2       -12.908733      -351.2645
    4    2        -1.004248       -27.3270


  List of ionic basis orbitals and eigenvalues:
    n    l      energy [Ha]    energy [eV]    outer radius [A]
    5    1        -0.516938       -14.0666       5.427025

 
  Pd                   hydrogenic:
 
  List of hydrogenic basis orbitals: 
    n    l      effective z      eigenvalue [eV]  inner max. [A]     outer max. [A]     outer radius [A]   
    4    3         8.000000       -54.4226           1.054686           1.054686           4.629581
    5    4        10.000000       -54.4226           1.330451           1.330451           5.043202
    3    0         2.600000        -9.8948           0.150992           2.606197           5.493778
    3    2         2.500000        -9.3396           1.873517           1.873517           5.493778
    5    3        17.200000      -161.0043           0.373111           1.004353           3.625407
    6    5        14.000000       -74.0753           1.363381           1.363381           4.861593
    4    2         4.000000       -13.2388           0.888779           2.736807           5.493778
    5    3         7.600000       -31.4055           0.846363           2.278272           5.427025
    3    1         3.300000       -16.4334           0.482316           1.919889           5.427025
    4    0         9.400000       -75.1373           0.041321           1.380151           4.517760
 

  Adding cutoff potential to free-atom effective potential.
  Creating atomic-like basis functions for current effective potential.

  Species Se                  :

  List of atomic basis orbitals and eigenvalues:
    n    l      energy [Ha]    energy [eV]    outer radius [A]
    1    0      -466.337810    -12689.6975       0.309561
    2    0       -59.202598     -1610.9847       0.885812
    3    0        -7.847116      -213.5309       2.355489
    4    0        -0.634372       -17.2621       5.214131
    2    1       -52.061107     -1416.6548       0.907737
    3    1        -5.620941      -152.9536       2.694529
    4    1        -0.238469        -6.4891       5.408909
    3    2        -1.951949       -53.1152       4.083166


  Species Pd                  :

  List of atomic basis orbitals and eigenvalues:
    n    l      energy [Ha]    energy [eV]    outer radius [A]
    1    0      -913.269104    -24851.3168       0.223280
    2    0      -130.434372     -3549.2998       0.615909
    3    0       -23.521804      -640.0609       1.414312
    4    0        -3.256918       -88.6253       3.581357
    5    0        -0.157260        -4.2793       5.427025
    2    1      -116.910756     -3181.3035       0.631154
    3    1       -19.103344      -519.8284       1.540671
    4    1        -1.998052       -54.3697       4.408641
    3    2       -12.098182      -329.2083       1.806051
    4    2        -0.243389        -6.6230       5.361084

  Assembling full basis from fixed parts.
  | Species Se :   atomic orbital   1 s accepted.
  | Species Se :   atomic orbital   2 s accepted.
  | Species Se :   atomic orbital   3 s accepted.
  | Species Se :    ionic orbital   4 s accepted.
  | Species Se :   atomic orbital   4 s accepted.
  | Species Se :    hydro orbital   1 s accepted.
  | Species Se :   atomic orbital   2 p accepted.
  | Species Se :   atomic orbital   3 p accepted.
  | Species Se :   atomic orbital   4 p accepted.
  | Species Se :    hydro orbital   2 p accepted.
  | Species Se :    hydro orbital   4 p accepted.
  | Species Se :   atomic orbital   3 d accepted.
  | Species Se :    hydro orbital   3 d accepted.
  | Species Se :    hydro orbital   4 d accepted.
  | Species Se :    hydro orbital   4 f accepted.
  | Species Se :    hydro orbital   4 f accepted.
  | Species Se :    hydro orbital   5 g accepted.
  | Species Se :    hydro orbital   6 h accepted.
  | Species Pd :   atomic orbital   1 s accepted.
  | Species Pd :   atomic orbital   2 s accepted.
  | Species Pd :   atomic orbital   3 s accepted.
  | Species Pd :   atomic orbital   4 s accepted.
  | Species Pd :    hydro orbital   4 s accepted.
  | Species Pd :   atomic orbital   5 s accepted.
  | Species Pd :    hydro orbital   3 s accepted.
  | Species Pd :   atomic orbital   2 p accepted.
  | Species Pd :   atomic orbital   3 p accepted.
  | Species Pd :   atomic orbital   4 p accepted.
  | Species Pd :    ionic orbital   5 p accepted.
  | Species Pd :    hydro orbital   3 p accepted.
  | Species Pd :   atomic orbital   3 d accepted.
  | Species Pd :   atomic orbital   4 d accepted.
  | Species Pd :    hydro orbital   3 d accepted.
  | Species Pd :    hydro orbital   4 d accepted.
  | Species Pd :    hydro orbital   5 f accepted.
  | Species Pd :    hydro orbital   4 f accepted.
  | Species Pd :    hydro orbital   5 f accepted.
  | Species Pd :    hydro orbital   5 g accepted.
  | Species Pd :    hydro orbital   6 h accepted.
 
  Basis size parameters after reduction:
  | Total number of radial functions:       39
  | Total number of basis functions :      892
 
  Per-task memory consumption for arrays in subroutine allocate_ext:
  |          14.439048MB.
  Testing on-site integration grid accuracy.
  |  Species  Function  <phi|h_atom|phi> (log., in eV)  <phi|h_atom|phi> (rad., in eV)
           1        1             -12689.6974611609             -12689.6967666984
           1        2              -1610.9846578580              -1610.9846472470
           1        3               -213.5308789869               -213.5308777267
           1        4                -17.0464428502                -17.0464426496
           1        5                  6.7356859379                  6.7356842047
           1        6                 16.3222979729                 16.3222286215
           1        7              -1416.6548010133              -1416.6548002108
           1        8               -152.9535734377               -152.9535727493
           1        9                 -6.4896265677                 -6.4896303794
           1       10                  5.2703037283                  5.2701679583
           1       11                 24.5827617535                 24.5824715668
           1       12                -53.1152220964                -53.1152219035
           1       13                  7.6186674138                  7.6186665630
           1       14                 26.7015845260                 26.7015708238
           1       15                 49.4570230857                 49.4570230427
           1       16                 39.6372293866                 39.6372304734
           1       17                 42.1067201496                 42.1067200432
           1       18                 70.4166767372                 70.4166768848
           2       19             -24851.3167505682             -24851.3148165635
           2       20              -3549.2998457747              -3549.2998097993
           2       21               -640.0608571314               -640.0608534873
           2       22                -88.6252603127                -88.6252593313
           2       23                 18.5246690731                 18.5246144201
           2       24                 52.8792069865                 52.8786557217
           2       25                 14.4029261103                 14.4027956453
           2       26              -3181.3035399520              -3181.3035364536
           2       27               -519.8284281878               -519.8284264055
           2       28                -54.3697495801                -54.3697489257
           2       29                  0.8628369486                  0.8628370489
           2       30                 16.2613885965                 16.2613815113
           2       31               -329.2082917386               -329.2082912856
           2       32                 -6.6230267033                 -6.6230265073
           2       33                  5.4924295293                  5.4924115609
           2       34                 20.9810059923                 20.9809511251
           2       35                 71.7764955213                 71.7764953800
           2       36                 68.0082778313                 68.0082774633
           2       37                 18.3729273419                 18.3729286229
           2       38                 38.8271273825                 38.8271278031
           2       39                 60.1424809375                 60.1424811706

  Preparing densities etc. for the partition functions (integrals / Hartree potential).

  Preparations completed.
  max(cpu_time)          :      0.476 s.
  Wall clock time (cpu1) :      0.475 s.
------------------------------------------------------------

------------------------------------------------------------
          Begin self-consistency loop: Initialization.

          Date     :  20191128, Time     :  015254.962
------------------------------------------------------------

  Initializing index lists of integration centers etc. from given atomic structure:
  Mapping all atomic coordinates to central unit cell.

  Initializing the k-points
          Using symmetry for reducing the k-points
  | k-points reduced from:      324 to      164
  | Number of k-points                             :       164
  The eigenvectors in the calculations are COMPLEX.
  | K-points in task   0:         2
  | K-points in task   1:         3
  | K-points in task   2:         3
  | K-points in task   3:         3
  | K-points in task   4:         3
  | K-points in task   5:         2
  | K-points in task   6:         2
  | K-points in task   7:         2
  | K-points in task   8:         2
  | K-points in task   9:         2
  | K-points in task  10:         2
  | K-points in task  11:         2
  | K-points in task  12:         2
  | K-points in task  13:         2
  | K-points in task  14:         2
  | K-points in task  15:         2
  | K-points in task  16:         2
  | K-points in task  17:         2
  | K-points in task  18:         2
  | K-points in task  19:         2
  | K-points in task  20:         2
  | K-points in task  21:         2
  | K-points in task  22:         2
  | K-points in task  23:         2
  | K-points in task  24:         2
  | K-points in task  25:         2
  | K-points in task  26:         2
  | K-points in task  27:         2
  | K-points in task  28:         2
  | K-points in task  29:         2
  | K-points in task  30:         2
  | K-points in task  31:         2
  | K-points in task  32:         2
  | K-points in task  33:         2
  | K-points in task  34:         2
  | K-points in task  35:         2
  | K-points in task  36:         2
  | K-points in task  37:         2
  | K-points in task  38:         2
  | K-points in task  39:         2
  | K-points in task  40:         2
  | K-points in task  41:         2
  | K-points in task  42:         2
  | K-points in task  43:         2
  | K-points in task  44:         2
  | K-points in task  45:         2
  | K-points in task  46:         2
  | K-points in task  47:         2
  | K-points in task  48:         2
  | K-points in task  49:         2
  | K-points in task  50:         2
  | K-points in task  51:         2
  | K-points in task  52:         2
  | K-points in task  53:         2
  | K-points in task  54:         2
  | K-points in task  55:         2
  | K-points in task  56:         2
  | K-points in task  57:         2
  | K-points in task  58:         2
  | K-points in task  59:         2
  | K-points in task  60:         2
  | K-points in task  61:         2
  | K-points in task  62:         2
  | K-points in task  63:         2
  | K-points in task  64:         2
  | K-points in task  65:         2
  | K-points in task  66:         2
  | K-points in task  67:         2
  | K-points in task  68:         2
  | K-points in task  69:         2
  | K-points in task  70:         2
  | K-points in task  71:         2
  | K-points in task  72:         2
  | K-points in task  73:         2
  | K-points in task  74:         2
  | K-points in task  75:         2
  | K-points in task  76:         2
  | K-points in task  77:         2
  | K-points in task  78:         2
  | K-points in task  79:         2
  | Number of basis functions in the Hamiltonian integrals :      5493
  | Number of basis functions in a single unit cell        :       892
  | Number of centers in hartree potential         :       474
  | Number of centers in hartree multipole         :       270
  | Number of centers in electron density summation:       218
  | Number of centers in basis integrals           :       232
  | Number of centers in integrals                 :       103
  | Number of centers in hamiltonian               :       223
  | Consuming         61 KiB for k_phase.
  | Number of super-cells (origin) [n_cells]                     :         243
  | Number of super-cells (after PM_index) [n_cells]             :          24
  | Number of super-cells in hamiltonian [n_cells_in_hamiltonian]:          24
  | Size of matrix packed + index [n_hamiltonian_matrix_size] :     2933253
  Initializing relaxation algorithms.
  Partitioning the integration grid into batches with parallel hashing+maxmin method.
  | Number of batches:     4248
  | Maximal batch size:     183
  | Minimal batch size:      33
  | Average batch size:      90.427
  | Standard deviation of batch sizes:      23.379

  Integration load balanced across    80 MPI tasks.
  Work distribution over tasks is as follows:
  Task     0 has       4801 integration points.
  Task     1 has       4814 integration points.
  Task     2 has       4781 integration points.
  Task     3 has       4813 integration points.
  Task     4 has       4763 integration points.
  Task     5 has       4783 integration points.
  Task     6 has       4774 integration points.
  Task     7 has       4816 integration points.
  Task     8 has       4899 integration points.
  Task     9 has       4778 integration points.
  Task    10 has       4814 integration points.
  Task    11 has       4816 integration points.
  Task    12 has       4820 integration points.
  Task    13 has       4786 integration points.
  Task    14 has       4819 integration points.
  Task    15 has       4787 integration points.
  Task    16 has       4816 integration points.
  Task    17 has       4816 integration points.
  Task    18 has       4811 integration points.
  Task    19 has       4808 integration points.
  Task    20 has       4781 integration points.
  Task    21 has       4816 integration points.
  Task    22 has       4780 integration points.
  Task    23 has       4819 integration points.
  Task    24 has       4819 integration points.
  Task    25 has       4852 integration points.
  Task    26 has       4783 integration points.
  Task    27 has       4897 integration points.
  Task    28 has       4774 integration points.
  Task    29 has       4794 integration points.
  Task    30 has       4789 integration points.
  Task    31 has       4776 integration points.
  Task    32 has       4805 integration points.
  Task    33 has       4778 integration points.
  Task    34 has       4816 integration points.
  Task    35 has       4767 integration points.
  Task    36 has       4783 integration points.
  Task    37 has       4801 integration points.
  Task    38 has       4795 integration points.
  Task    39 has       4812 integration points.
  Task    40 has       4818 integration points.
  Task    41 has       4816 integration points.
  Task    42 has       4786 integration points.
  Task    43 has       4818 integration points.
  Task    44 has       4787 integration points.
  Task    45 has       4778 integration points.
  Task    46 has       4809 integration points.
  Task    47 has       4783 integration points.
  Task    48 has       4780 integration points.
  Task    49 has       4761 integration points.
  Task    50 has       4815 integration points.
  Task    51 has       4786 integration points.
  Task    52 has       4783 integration points.
  Task    53 has       4786 integration points.
  Task    54 has       4774 integration points.
  Task    55 has       4789 integration points.
  Task    56 has       4820 integration points.
  Task    57 has       4812 integration points.
  Task    58 has       4778 integration points.
  Task    59 has       4811 integration points.
  Task    60 has       4805 integration points.
  Task    61 has       4782 integration points.
  Task    62 has       4786 integration points.
  Task    63 has       4790 integration points.
  Task    64 has       4782 integration points.
  Task    65 has       4782 integration points.
  Task    66 has       4792 integration points.
  Task    67 has       4777 integration points.
  Task    68 has       4932 integration points.
  Task    69 has       4781 integration points.
  Task    70 has       4777 integration points.
  Task    71 has       4888 integration points.
  Task    72 has       4807 integration points.
  Task    73 has       4812 integration points.
  Task    74 has       4799 integration points.
  Task    75 has       4800 integration points.
  Task    76 has       4780 integration points.
  Task    77 has       4808 integration points.
  Task    78 has       4822 integration points.
  Task    79 has       4792 integration points.
  Initializing partition tables, free-atom densities, potentials, etc. across the integration grid (initialize_grid_storage).
  | initialize_grid_storage: Actual outermost partition radius vs. multipole_radius_free
  | (-- VB: in principle, multipole_radius_free should be larger, hence this output)
  | Species        1: Confinement radius =              6.000000000000000 AA, multipole_radius_free =              6.037996416842453 AA.
  | Species        1: outer_partition_radius set to              6.037996416842453 AA .
  | Species        2: Confinement radius =              6.000000000000000 AA, multipole_radius_free =              6.058219618167466 AA.
  | Species        2: outer_partition_radius set to              6.058219618167466 AA .
  | Original list of interatomic distances with         232 x        232 entries is created.
  | Net number of integration points:   384136
  | of which are non-zero points    :   332043
  | Numerical average free-atom electrostatic potential    :     -1.33088595 eV
  Renormalizing the initial density to the exact electron count on the 3D integration grid.
  | Initial density: Formal number of electrons (from input files) :     456.0000000000
  | Integrated number of electrons on 3D grid     :     455.9999366747
  | Charge integration error                      :      -0.0000633253
  | Normalization factor for density and gradient :       1.0000001389
  Obtaining max. number of non-zero basis functions in each batch (get_n_compute_maxes).
  | Maximal number of non-zero basis functions:     1862 in task     0
  | Maximal number of non-zero basis functions:     1840 in task     1
  | Maximal number of non-zero basis functions:     1886 in task     2
  | Maximal number of non-zero basis functions:     1820 in task     3
  | Maximal number of non-zero basis functions:     1854 in task     4
  | Maximal number of non-zero basis functions:     1891 in task     5
  | Maximal number of non-zero basis functions:     1840 in task     6
  | Maximal number of non-zero basis functions:     1816 in task     7
  | Maximal number of non-zero basis functions:     1768 in task     8
  | Maximal number of non-zero basis functions:     1834 in task     9
  | Maximal number of non-zero basis functions:     1841 in task    10
  | Maximal number of non-zero basis functions:     1854 in task    11
  | Maximal number of non-zero basis functions:     1838 in task    12
  | Maximal number of non-zero basis functions:     1886 in task    13
  | Maximal number of non-zero basis functions:     1850 in task    14
  | Maximal number of non-zero basis functions:     1834 in task    15
  | Maximal number of non-zero basis functions:     1843 in task    16
  | Maximal number of non-zero basis functions:     1825 in task    17
  | Maximal number of non-zero basis functions:     1838 in task    18
  | Maximal number of non-zero basis functions:     1897 in task    19
  | Maximal number of non-zero basis functions:     1839 in task    20
  | Maximal number of non-zero basis functions:     1828 in task    21
  | Maximal number of non-zero basis functions:     1810 in task    22
  | Maximal number of non-zero basis functions:     1847 in task    23
  | Maximal number of non-zero basis functions:     1816 in task    24
  | Maximal number of non-zero basis functions:     1897 in task    25
  | Maximal number of non-zero basis functions:     1816 in task    26
  | Maximal number of non-zero basis functions:     1814 in task    27
  | Maximal number of non-zero basis functions:     1860 in task    28
  | Maximal number of non-zero basis functions:     1909 in task    29
  | Maximal number of non-zero basis functions:     1840 in task    30
  | Maximal number of non-zero basis functions:     1807 in task    31
  | Maximal number of non-zero basis functions:     1833 in task    32
  | Maximal number of non-zero basis functions:     1863 in task    33
  | Maximal number of non-zero basis functions:     1843 in task    34
  | Maximal number of non-zero basis functions:     1840 in task    35
  | Maximal number of non-zero basis functions:     1792 in task    36
  | Maximal number of non-zero basis functions:     1816 in task    37
  | Maximal number of non-zero basis functions:     1862 in task    38
  | Maximal number of non-zero basis functions:     1855 in task    39
  | Maximal number of non-zero basis functions:     1909 in task    40
  | Maximal number of non-zero basis functions:     1822 in task    41
  | Maximal number of non-zero basis functions:     1854 in task    42
  | Maximal number of non-zero basis functions:     1810 in task    43
  | Maximal number of non-zero basis functions:     1905 in task    44
  | Maximal number of non-zero basis functions:     1897 in task    45
  | Maximal number of non-zero basis functions:     1888 in task    46
  | Maximal number of non-zero basis functions:     1819 in task    47
  | Maximal number of non-zero basis functions:     1786 in task    48
  | Maximal number of non-zero basis functions:     1836 in task    49
  | Maximal number of non-zero basis functions:     1847 in task    50
  | Maximal number of non-zero basis functions:     1837 in task    51
  | Maximal number of non-zero basis functions:     1831 in task    52
  | Maximal number of non-zero basis functions:     1841 in task    53
  | Maximal number of non-zero basis functions:     1838 in task    54
  | Maximal number of non-zero basis functions:     1852 in task    55
  | Maximal number of non-zero basis functions:     1825 in task    56
  | Maximal number of non-zero basis functions:     1813 in task    57
  | Maximal number of non-zero basis functions:     1827 in task    58
  | Maximal number of non-zero basis functions:     1851 in task    59
  | Maximal number of non-zero basis functions:     1840 in task    60
  | Maximal number of non-zero basis functions:     1854 in task    61
  | Maximal number of non-zero basis functions:     1892 in task    62
  | Maximal number of non-zero basis functions:     1828 in task    63
  | Maximal number of non-zero basis functions:     1841 in task    64
  | Maximal number of non-zero basis functions:     1866 in task    65
  | Maximal number of non-zero basis functions:     1835 in task    66
  | Maximal number of non-zero basis functions:     1897 in task    67
  | Maximal number of non-zero basis functions:     1802 in task    68
  | Maximal number of non-zero basis functions:     1895 in task    69
  | Maximal number of non-zero basis functions:     1782 in task    70
  | Maximal number of non-zero basis functions:     1828 in task    71
  | Maximal number of non-zero basis functions:     1778 in task    72
  | Maximal number of non-zero basis functions:     1820 in task    73
  | Maximal number of non-zero basis functions:     1821 in task    74
  | Maximal number of non-zero basis functions:     1825 in task    75
  | Maximal number of non-zero basis functions:     1813 in task    76
  | Maximal number of non-zero basis functions:     1837 in task    77
  | Maximal number of non-zero basis functions:     1850 in task    78
  | Maximal number of non-zero basis functions:     1783 in task    79
  Allocating        8.392 MB for KS_eigenvector_complex
  Integrating Hamiltonian matrix: batch-based integration.
  Time summed over all CPUs for integration: real work      124.470 s, elapsed      129.030 s
  Integrating overlap matrix.
  Time summed over all CPUs for integration: real work       92.049 s, elapsed       95.823 s
  Decreasing sparse matrix size:
   Tolerance:  9.999999824516700E-014
   Hamiltonian matrix
  | Array has  2628068 nonzero elements out of  2933253 elements
  | Sparsity factor is 0.104
   Overlap matrix
  | Array has  2463628 nonzero elements out of  2933253 elements
  | Sparsity factor is 0.160
  New size of hamiltonian matrix:     2628297

  Updating Kohn-Sham eigenvalues and eigenvectors using ELSI and the ELPA eigensolver.
  Overlap matrix is nonsingular
  | Lowest eigenvalue of overlap  :  0.99E-04
  | Highest eigenvalue of overlap :  0.10E+02
  Finished singularity check of overlap matrix
  | Time :     0.534 s
  Finished Cholesky decomposition
  | Time :     0.068 s
  Finished transformation to standard eigenproblem
  | Time :     0.118 s
  Starting LAPACK eigensolver
  Finished solving standard eigenproblem
  | Time :     0.562 s
  Finished back-transformation of eigenvectors
  | Time :     0.032 s

  Obtaining occupation numbers and chemical potential using ELSI.
  | Chemical potential (Fermi level):    -5.51539950eV
  Writing Kohn-Sham eigenvalues.
  K-point:       1 at    0.000000    0.000000    0.000000 (in units of recip. lattice)

  State    Occupation    Eigenvalue [Ha]    Eigenvalue [eV]
      1       2.00000        -913.280391       -24851.62388
      2       2.00000        -913.280391       -24851.62388
      3       2.00000        -913.280391       -24851.62388
      4       2.00000        -913.280391       -24851.62388
      5       2.00000        -466.351248       -12690.06313
      6       2.00000        -466.351248       -12690.06313
      7       2.00000        -466.351248       -12690.06313
      8       2.00000        -466.351248       -12690.06313
      9       2.00000        -466.350968       -12690.05550
     10       2.00000        -466.350968       -12690.05550
     11       2.00000        -466.350968       -12690.05550
     12       2.00000        -466.350968       -12690.05550
     13       2.00000        -130.445982        -3549.61578
     14       2.00000        -130.445982        -3549.61578
     15       2.00000        -130.445982        -3549.61578
     16       2.00000        -130.445982        -3549.61578
     17       2.00000        -116.922394        -3181.62023
     18       2.00000        -116.922394        -3181.62023
     19       2.00000        -116.922394        -3181.62023
     20       2.00000        -116.922394        -3181.62022
     21       2.00000        -116.922384        -3181.61996
     22       2.00000        -116.922384        -3181.61996
     23       2.00000        -116.922384        -3181.61995
     24       2.00000        -116.922384        -3181.61995
     25       2.00000        -116.922317        -3181.61813
     26       2.00000        -116.922317        -3181.61813
     27       2.00000        -116.922317        -3181.61813
     28       2.00000        -116.922317        -3181.61813
     29       2.00000         -59.216475        -1611.36227
     30       2.00000         -59.216475        -1611.36227
     31       2.00000         -59.216475        -1611.36227
     32       2.00000         -59.216475        -1611.36227
     33       2.00000         -59.216187        -1611.35443
     34       2.00000         -59.216187        -1611.35443
     35       2.00000         -59.216187        -1611.35443
     36       2.00000         -59.216187        -1611.35443
     37       2.00000         -52.074995        -1417.03270
     38       2.00000         -52.074995        -1417.03270
     39       2.00000         -52.074994        -1417.03269
     40       2.00000         -52.074994        -1417.03269
     41       2.00000         -52.074965        -1417.03188
     42       2.00000         -52.074965        -1417.03188
     43       2.00000         -52.074964        -1417.03188
     44       2.00000         -52.074964        -1417.03188
     45       2.00000         -52.074909        -1417.03036
     46       2.00000         -52.074909        -1417.03036
     47       2.00000         -52.074909        -1417.03036
     48       2.00000         -52.074908        -1417.03036
     49       2.00000         -52.074708        -1417.02492
     50       2.00000         -52.074708        -1417.02492
     51       2.00000         -52.074708        -1417.02491
     52       2.00000         -52.074708        -1417.02491
     53       2.00000         -52.074678        -1417.02410
     54       2.00000         -52.074678        -1417.02410
     55       2.00000         -52.074678        -1417.02410
     56       2.00000         -52.074678        -1417.02410
     57       2.00000         -52.074622        -1417.02255
     58       2.00000         -52.074622        -1417.02255
     59       2.00000         -52.074621        -1417.02255
     60       2.00000         -52.074621        -1417.02255
     61       2.00000         -23.534231         -640.39900
     62       2.00000         -23.534231         -640.39900
     63       2.00000         -23.534231         -640.39900
     64       2.00000         -23.534231         -640.39900
     65       2.00000         -19.116076         -520.17491
     66       2.00000         -19.116076         -520.17491
     67       2.00000         -19.116076         -520.17491
     68       2.00000         -19.116076         -520.17491
     69       2.00000         -19.115978         -520.17222
     70       2.00000         -19.115978         -520.17222
     71       2.00000         -19.115978         -520.17222
     72       2.00000         -19.115978         -520.17222
     73       2.00000         -19.115315         -520.15420
     74       2.00000         -19.115315         -520.15420
     75       2.00000         -19.115315         -520.15420
     76       2.00000         -19.115315         -520.15420
     77       2.00000         -12.110889         -329.55407
     78       2.00000         -12.110889         -329.55407
     79       2.00000         -12.110889         -329.55407
     80       2.00000         -12.110889         -329.55407
     81       2.00000         -12.110849         -329.55296
     82       2.00000         -12.110849         -329.55296
     83       2.00000         -12.110849         -329.55296
     84       2.00000         -12.110849         -329.55296
     85       2.00000         -12.110422         -329.54136
     86       2.00000         -12.110422         -329.54136
     87       2.00000         -12.110422         -329.54136
     88       2.00000         -12.110422         -329.54136
     89       2.00000         -12.110359         -329.53964
     90       2.00000         -12.110359         -329.53964
     91       2.00000         -12.110359         -329.53964
     92       2.00000         -12.110359         -329.53964
     93       2.00000         -12.110251         -329.53670
     94       2.00000         -12.110251         -329.53670
     95       2.00000         -12.110251         -329.53670
     96       2.00000         -12.110251         -329.53670
     97       2.00000          -7.862894         -213.96023
     98       2.00000          -7.862894         -213.96023
     99       2.00000          -7.862894         -213.96023
    100       2.00000          -7.862894         -213.96023
    101       2.00000          -7.862546         -213.95077
    102       2.00000          -7.862546         -213.95077
    103       2.00000          -7.862546         -213.95077
    104       2.00000          -7.862546         -213.95077
    105       2.00000          -5.637386         -153.40109
    106       2.00000          -5.637386         -153.40109
    107       2.00000          -5.637386         -153.40109
    108       2.00000          -5.637386         -153.40109
    109       2.00000          -5.637065         -153.39233
    110       2.00000          -5.637065         -153.39233
    111       2.00000          -5.637065         -153.39233
    112       2.00000          -5.637065         -153.39233
    113       2.00000          -5.637031         -153.39141
    114       2.00000          -5.637031         -153.39141
    115       2.00000          -5.637031         -153.39140
    116       2.00000          -5.637031         -153.39140
    117       2.00000          -5.636699         -153.38238
    118       2.00000          -5.636699         -153.38238
    119       2.00000          -5.636699         -153.38238
    120       2.00000          -5.636699         -153.38238
    121       2.00000          -5.636313         -153.37189
    122       2.00000          -5.636313         -153.37189
    123       2.00000          -5.636313         -153.37189
    124       2.00000          -5.636313         -153.37189
    125       2.00000          -5.635950         -153.36199
    126       2.00000          -5.635950         -153.36199
    127       2.00000          -5.635950         -153.36199
    128       2.00000          -5.635950         -153.36199
    129       2.00000          -3.275300          -89.12545
    130       2.00000          -3.275300          -89.12544
    131       2.00000          -3.275297          -89.12537
    132       2.00000          -3.275297          -89.12537
    133       2.00000          -2.022434          -55.03324
    134       2.00000          -2.022434          -55.03323
    135       2.00000          -2.022380          -55.03176
    136       2.00000          -2.022380          -55.03176
    137       2.00000          -2.021294          -55.00221
    138       2.00000          -2.021294          -55.00220
    139       2.00000          -2.021228          -55.00041
    140       2.00000          -2.021228          -55.00041
    141       2.00000          -2.013571          -54.79207
    142       2.00000          -2.013571          -54.79205
    143       2.00000          -2.013565          -54.79189
    144       2.00000          -2.013564          -54.79188
    145       2.00000          -1.970434          -53.61824
    146       2.00000          -1.970432          -53.61819
    147       2.00000          -1.970402          -53.61738
    148       2.00000          -1.970401          -53.61733
    149       2.00000          -1.969306          -53.58755
    150       2.00000          -1.969304          -53.58749
    151       2.00000          -1.969290          -53.58710
    152       2.00000          -1.969289          -53.58707
    153       2.00000          -1.968784          -53.57335
    154       2.00000          -1.968784          -53.57333
    155       2.00000          -1.968770          -53.57295
    156       2.00000          -1.968769          -53.57292
    157       2.00000          -1.968664          -53.57008
    158       2.00000          -1.968662          -53.57002
    159       2.00000          -1.968662          -53.57001
    160       2.00000          -1.968661          -53.56999
    161       2.00000          -1.968327          -53.56090
    162       2.00000          -1.968325          -53.56084
    163       2.00000          -1.968299          -53.56015
    164       2.00000          -1.968298          -53.56011
    165       2.00000          -1.968277          -53.55956
    166       2.00000          -1.968275          -53.55948
    167       2.00000          -1.968256          -53.55897
    168       2.00000          -1.968252          -53.55886
    169       2.00000          -1.968111          -53.55504
    170       2.00000          -1.968109          -53.55496
    171       2.00000          -1.968092          -53.55450
    172       2.00000          -1.968088          -53.55440
    173       2.00000          -1.967993          -53.55180
    174       2.00000          -1.967992          -53.55180
    175       2.00000          -1.967972          -53.55125
    176       2.00000          -1.967972          -53.55125
    177       2.00000          -1.967458          -53.53726
    178       2.00000          -1.967458          -53.53725
    179       2.00000          -1.967445          -53.53690
    180       2.00000          -1.967444          -53.53687
    181       2.00000          -1.967105          -53.52764
    182       2.00000          -1.967102          -53.52758
    183       2.00000          -1.967101          -53.52753
    184       2.00000          -1.967098          -53.52747
    185       2.00000          -0.760004          -20.68077
    186       2.00000          -0.754129          -20.52089
    187       2.00000          -0.724073          -19.70302
    188       2.00000          -0.723327          -19.68273
    189       2.00000          -0.648560          -17.64822
    190       2.00000          -0.642465          -17.48237
    191       2.00000          -0.633471          -17.23763
    192       2.00000          -0.629707          -17.13519
    193       2.00000          -0.420631          -11.44594
    194       2.00000          -0.416645          -11.33750
    195       2.00000          -0.384942          -10.47481
    196       2.00000          -0.381021          -10.36811
    197       2.00000          -0.376712          -10.25086
    198       2.00000          -0.373217          -10.15575
    199       2.00000          -0.370533          -10.08272
    200       2.00000          -0.369684          -10.05961
    201       2.00000          -0.365321           -9.94089
    202       2.00000          -0.358607           -9.75820
    203       2.00000          -0.356094           -9.68981
    204       2.00000          -0.355758           -9.68066
    205       2.00000          -0.328466           -8.93800
    206       2.00000          -0.323983           -8.81604
    207       2.00000          -0.316749           -8.61917
    208       2.00000          -0.311705           -8.48193
    209       2.00000          -0.308812           -8.40319
    210       2.00000          -0.303718           -8.26459
    211       2.00000          -0.295118           -8.03057
    212       2.00000          -0.292011           -7.94602
    213       2.00000          -0.286440           -7.79444
    214       2.00000          -0.285115           -7.75837
    215       2.00000          -0.281432           -7.65815
    216       2.00000          -0.279664           -7.61003
    217       2.00000          -0.275446           -7.49525
    218       2.00000          -0.275237           -7.48957
    219       2.00000          -0.274327           -7.46481
    220       2.00000          -0.272538           -7.41613
    221       2.00000          -0.257400           -7.00421
    222       2.00000          -0.247397           -6.73201
    223       2.00000          -0.244570           -6.65510
    224       2.00000          -0.243420           -6.62381
    225       2.00000          -0.234734           -6.38745
    226       2.00000          -0.227899           -6.20145
    227       2.00000          -0.227411           -6.18818
    228       2.00000          -0.204400           -5.56202
    229       0.00000          -0.142254           -3.87094
    230       0.00000          -0.141926           -3.86201
    231       0.00000          -0.136809           -3.72277
    232       0.00000          -0.132163           -3.59633
    233       0.00000          -0.129324           -3.51908
    234       0.00000          -0.125067           -3.40324
    235       0.00000          -0.102718           -2.79510
    236       0.00000          -0.089038           -2.42284
    237       0.00000          -0.042799           -1.16462
    238       0.00000          -0.035426           -0.96398
    239       0.00000          -0.021272           -0.57885
    240       0.00000          -0.016351           -0.44495
    241       0.00000          -0.010045           -0.27334
    242       0.00000           0.002188            0.05953
    243       0.00000           0.004146            0.11282
    244       0.00000           0.059378            1.61576
    245       0.00000           0.070293            1.91278
    246       0.00000           0.078073            2.12447
    247       0.00000           0.082474            2.24423
    248       0.00000           0.100215            2.72699
    249       0.00000           0.102807            2.79753
    250       0.00000           0.108916            2.96376
    251       0.00000           0.113242            3.08148
    252       0.00000           0.118604            3.22737
    253       0.00000           0.135450            3.68577
    254       0.00000           0.139249            3.78916
    255       0.00000           0.149908            4.07921
    256       0.00000           0.168127            4.57498
    257       0.00000           0.168740            4.59165
    258       0.00000           0.169157            4.60300
    259       0.00000           0.169770            4.61967
    260       0.00000           0.177455            4.82881
    261       0.00000           0.181758            4.94590
    262       0.00000           0.182820            4.97478
    263       0.00000           0.200561            5.45754
    264       0.00000           0.205752            5.59881
    265       0.00000           0.207902            5.65729
    266       0.00000           0.212088            5.77121
    267       0.00000           0.222985            6.06772
    268       0.00000           0.242620            6.60203
    269       0.00000           0.251576            6.84572
    270       0.00000           0.259686            7.06641
    271       0.00000           0.264075            7.18585
    272       0.00000           0.266232            7.24455
    273       0.00000           0.282603            7.69002
    274       0.00000           0.286603            7.79886
    275       0.00000           0.304173            8.27697
    276       0.00000           0.311416            8.47405
    277       0.00000           0.312651            8.50766
    278       0.00000           0.315457            8.58403
    279       0.00000           0.316221            8.60481
    280       0.00000           0.326103            8.87371
    281       0.00000           0.344599            9.37702
    282       0.00000           0.346375            9.42533
    283       0.00000           0.351206            9.55679
    284       0.00000           0.352649            9.59606
    285       0.00000           0.354863            9.65633
    286       0.00000           0.357337            9.72363
    287       0.00000           0.359597            9.78513
    288       0.00000           0.370902           10.09277
    289       0.00000           0.386886           10.52769
    290       0.00000           0.392839           10.68969
    291       0.00000           0.403835           10.98892
    292       0.00000           0.409135           11.13312
    293       0.00000           0.415002           11.29279
    294       0.00000           0.416143           11.32383

  What follows are estimated values for band gap, HOMO, LUMO, etc.
  | They are estimated on a discrete k-point grid and not necessarily exact.
  | For converged numbers, create a DOS and/or band structure plot on a denser k-grid.

  Highest occupied state (VBM) at     -5.55464275 eV (relative to internal zero)
  | Occupation number:      1.99999997
  | K-point:      51 at    0.222222    0.000000    0.000000 (in units of recip. lattice)

  Lowest unoccupied state (CBM) at    -4.41185569 eV (relative to internal zero)
  | Occupation number:      0.00000000
  | K-point:      70 at    0.277778    0.388889    0.000000 (in units of recip. lattice)

  ESTIMATED overall HOMO-LUMO gap:      1.14278706 eV between HOMO at k-point 51 and LUMO at k-point 70
  | This appears to be an indirect band gap.
  | Smallest direct gap :      1.34522844 eV for k_point 78 at    0.277778    0.388889    0.000000 (in units of recip. lattice)
  The gap value is above 0.2 eV. Unless you are using a very sparse k-point grid,
  this system is most likely an insulator or a semiconductor.
  Calculating total energy contributions from superposition of free atom densities.

  Total energy components:
  | Sum of eigenvalues            :      -23857.75561612 Ha     -649202.56137731 eV
  | XC energy correction          :       -1284.56871771 Ha      -34954.89329422 eV
  | XC potential correction       :        1673.21330961 Ha       45530.45071822 eV
  | Free-atom electrostatic energy:      -16510.83798571 Ha     -449282.76084643 eV
  | Hartree energy correction     :           0.00000000 Ha           0.00000000 eV
  | Entropy correction            :          -0.00000000 Ha          -0.00000000 eV
  | ---------------------------
  | Total energy                  :      -39979.94900993 Ha    -1087909.76479973 eV
  | Total energy, T -> 0          :      -39979.94900993 Ha    -1087909.76479973 eV  <-- do not rely on this value for anything but (periodic) metals
  | Electronic free energy        :      -39979.94900993 Ha    -1087909.76479973 eV

  Derived energy quantities:
  | Kinetic energy                :       41147.39993059 Ha     1119677.72068661 eV
  | Electrostatic energy          :      -79842.78022282 Ha    -2172632.59219212 eV
[...]
   ----------------------------------------------------------------
   Total forces(   8)            : -0.178391E-02 -0.870238E-03 -0.850265E-03
  atom #    9
   Hellmann-Feynman              : -0.351208E+00 -0.128118E+01  0.592789E+00
   Ionic forces                  :  0.000000E+00  0.000000E+00  0.000000E+00
   Multipole                     :  0.159877E-01  0.210223E-01  0.397665E-01
   Pulay + GGA                   :  0.333337E+00  0.125581E+01 -0.674388E+00
   Van der Waals                 :  0.273463E-02  0.458041E-02  0.422387E-01
   ----------------------------------------------------------------
   Total forces(   9)            :  0.850665E-03  0.236269E-03  0.406274E-03
  atom #   10
   Hellmann-Feynman              :  0.365441E+00 -0.127814E+01  0.578878E+00
   Ionic forces                  :  0.000000E+00  0.000000E+00  0.000000E+00
   Multipole                     : -0.160942E-01  0.211170E-01  0.395016E-01
   Pulay + GGA                   : -0.346798E+00  0.125205E+01 -0.660745E+00
   Van der Waals                 : -0.278597E-02  0.456572E-02  0.422521E-01
   ----------------------------------------------------------------
   Total forces(  10)            : -0.237444E-03 -0.409557E-03 -0.113409E-03
  atom #   11
   Hellmann-Feynman              :  0.223727E+00  0.238819E+01 -0.362321E+02
   Ionic forces                  :  0.000000E+00  0.000000E+00  0.000000E+00
   Multipole                     : -0.273439E-03 -0.409326E-02  0.255694E-01
   Pulay + GGA                   : -0.225835E+00 -0.238295E+01  0.361458E+02
   Van der Waals                 :  0.513516E-02 -0.134260E-02  0.606801E-01
   ----------------------------------------------------------------
   Total forces(  11)            :  0.275434E-02 -0.194955E-03 -0.395703E-04
  atom #   12
   Hellmann-Feynman              : -0.224956E+00  0.238656E+01 -0.362346E+02
   Ionic forces                  :  0.000000E+00  0.000000E+00  0.000000E+00
   Multipole                     :  0.511699E-03 -0.351451E-02  0.254184E-01
   Pulay + GGA                   :  0.232356E+00 -0.238367E+01  0.361482E+02
   Van der Waals                 : -0.512840E-02 -0.133386E-02  0.606866E-01
   ----------------------------------------------------------------
   Total forces(  12)            :  0.278380E-02 -0.196700E-02 -0.321317E-03


  Analytical stress tensor components [eV]         xx                  yy                  zz                  xy                  xz                  yz
  -----------------------------------------------------------------------------------------------------------------------------------------------------------
    Nuclear Hellmann-Feynman      :    -0.7962263801E+02   -0.1051566345E+03   -0.1031889651E+03    0.6787320530E-02    0.7890333301E-01   -0.1049798132E-02
    Multipole Hellmann-Feynman    :    -0.2910565203E+03   -0.3322176088E+03   -0.1885465983E+03    0.1315797100E-01    0.1121641697E+00   -0.2007039127E-02
    On-site Multipole corrections :    -0.4753802019E+01   -0.4753712424E+01   -0.4753867997E+01   -0.6560237804E-07    0.2811751457E-06   -0.1683678876E-07
    Strain deriv. of the orbitals :     0.3735238493E+03    0.4402263996E+03    0.2955634203E+03   -0.1898100020E-01   -0.1689359564E+00    0.2763254834E-02
    vdW correction   :     0.1873574277E+01    0.1905300097E+01    0.1135494715E+01   -0.1001798560E-04    0.7275276549E-04    0.8381213183E-06
  -----------------------------------------------------------------------------------------------------------------------------------------------------------
  Sum of all contributions        :    -0.3553673980E-01    0.3743913349E-02    0.2094835744E+00    0.9542077406E-03    0.2220458026E-01   -0.2927611402E-03

  +-------------------------------------------------------------------+
  |              Analytical stress tensor - Symmetrized               |
  |                  Cartesian components [eV/A**3]                   |
  +-------------------------------------------------------------------+
  |                x                y                z                |
  |                                                                   |
  |  x        -0.00001047       0.00000028       0.00000654           |
  |  y         0.00000028       0.00000110      -0.00000009           |
  |  z         0.00000654      -0.00000009       0.00006169           |
  |                                                                   |
  |  Pressure:      -0.00001744   [eV/A**3]                           |
  |                                                                   |
  +-------------------------------------------------------------------+

 * Warning: Stress tensor is anisotropic. Be aware that pressure is an isotropic quantity.

  Timings for VdW correction (Tkatchenko-Scheffler 2009 or later):
  | CPU time:        2.844 s, Wall clock time:        2.835 s.
  Removing unitary transformations (pure translations, rotations) from forces on atoms.
  Atomic forces before filtering:
  | Net force on center of mass :  -0.228750E-05  0.253448E-04  0.316547E-04 eV/A
  Removing unitary transformations (rotations) from forces on lattice.
  Lattice forces before filtering:
  | Net torque relative to origin:   0.880353E-20 -0.332366E-20 -0.325357E-20 eV
  Atomic forces after filtering:
  | Net force on center of mass :  -0.696899E-18 -0.696899E-18  0.000000E+00 eV/A
  Lattice forces after filtering:
  | Net torque relative to origin:   0.880353E-20 -0.332366E-20 -0.325357E-20 eV

  Energy and forces in a compact form:
  | Total energy uncorrected      :         -0.108791073604065E+07 eV
  | Total energy corrected        :         -0.108791073604065E+07 eV  <-- do not rely on this value for anything but (periodic) metals
  | Electronic free energy        :         -0.108791073604065E+07 eV
  Total atomic forces (unitary forces cleaned) [eV/Ang]:
  |   1         -0.302884254629316E-02         -0.880769270448121E-03         -0.235866424991035E-03
  |   2         -0.302744212093303E-02         -0.108054603662033E-02          0.869950923281229E-03
  |   3          0.865833703188526E-03          0.201401422135704E-02          0.111026384326338E-03
  |   4         -0.241952172281610E-03         -0.220429829368496E-02         -0.424897453600372E-03
  |   5          0.198517780915937E-02          0.143371852617250E-02         -0.209828635622400E-03
  |   6          0.141155091017544E-02          0.722061887149771E-03          0.886824079248195E-03
  |   7         -0.233273155010428E-02          0.321186012394309E-02         -0.657330082530348E-04
  |   8         -0.178372369191929E-02         -0.872349719845801E-03         -0.852902485926012E-03
  |   9          0.850855393612361E-03          0.234157038040349E-03          0.403636480880928E-03
  |  10         -0.237253108155819E-03         -0.411669029308893E-03         -0.116047202305117E-03
  |  11          0.275453285376307E-02         -0.197067450112568E-03         -0.422082323267496E-04
  |  12          0.278399451978842E-02         -0.196911199664208E-02         -0.323954424711969E-03

  ------------------------------------ 
  Start decomposition of the XC Energy 
  ------------------------------------ 
  X and C from original XC functional choice 
  Hartree-Fock Energy :          0.000000000 Ha              0.000000000 eV
  X Energy            :      -1261.118898920 Ha         -34316.791258742 eV
  C Energy            :        -23.198231138 Ha           -631.255987206 eV
  Total XC Energy     :      -1284.317130058 Ha         -34948.047245948 eV
  ------------------------------------ 
  LDA X and C from self-consistent density 
  X Energy LDA        :      -1197.491170767 Ha         -32585.392683107 eV
  C Energy LDA        :        -42.059797482 Ha          -1144.505321274 eV
  ------------------------------------ 
  End decomposition of the XC Energy 
  ------------------------------------ 

------------------------------------------------------------
  Relaxation / MD: End force evaluation.       :  max(cpu_time)    wall_clock(cpu1)
  | Time for this force evaluation             :      188.744 s         189.423 s

------------------------------------------------------------
  Geometry optimization: Attempting to predict improved coordinates.

  +-------------------------------------------------------------------+
  | Generalized derivatives on lattice vectors [eV/A]                 |
  +-------------------------------------------------------------------+
  |lattice_vector      -0.00617995       0.00016594       0.00386144  |
  |lattice_vector       0.00016158       0.00063398      -0.00004957  |
  |lattice_vector       0.00022205      -0.00000293       0.00209488  |
  +-------------------------------------------------------------------+
  | Forces on lattice vectors cleaned from atomic contributions [eV/A]|
  +-------------------------------------------------------------------+
  |lattice_vector       0.00102746      -0.00196231      -0.00487812  |
  |lattice_vector      -0.00018010       0.00078118       0.00120455  |
  |lattice_vector       0.00000000      -0.00000013      -0.00212992  |
  +-------------------------------------------------------------------+
  | Projected forces for shape relaxation  [eV/A]                     |
  +-------------------------------------------------------------------+
  |lattice_vector       0.00102746       0.00000000       0.00000000  |
  |lattice_vector       0.00000000       0.00078118      -0.00000000  |
  |lattice_vector      -0.00000000      -0.00000000      -0.00212992  |
  +-------------------------------------------------------------------+
  Removing unitary transformations (pure translations, rotations) from forces on atoms.
  Atomic forces before filtering:
  | Net force on center of mass :  -0.696899E-18 -0.696899E-18  0.000000E+00 eV/A
  Removing unitary transformations (rotations) from forces on lattice.
  Lattice forces before filtering:
  | Net torque relative to origin:   0.102358E-34  0.000000E+00  0.495796E-35 eV
  Atomic forces after filtering:
  | Net force on center of mass :  -0.696899E-18 -0.696899E-18  0.435562E-19 eV/A
  Lattice forces after filtering:
  | Net torque relative to origin:   0.102358E-34  0.000000E+00  0.495796E-35 eV
  || Forces on lattice vectors || =   0.212992E-02 eV/A.
  Net remaining forces (excluding translations, rotations) in present geometry:
  Maximum force component is  0.321186E-02 eV/A.
  Present geometry is converged.

------------------------------------------------------------
  Final atomic structure:
                         x [A]             y [A]             z [A]
  lattice_vector         5.75033159        0.00000000        0.00000000
  lattice_vector         0.00000000        5.90545399       -0.00000000
  lattice_vector         0.00000000        0.00000000       99.99804797

            atom        -2.23263835        0.70403764        2.70507130  Se
            atom        -0.63831171       -2.24889096        2.70506828  Se
            atom        -0.01790117       -0.01462688        1.90008965  Pd
            atom         2.89667534        2.93853103        1.90037330  Pd
            atom         0.63281691        2.24943473        1.21656053  Se
            atom         2.24568930       -0.70307422        1.21673317  Se
            atom        -0.63278991       -0.70335788       -1.21654219  Se
            atom        -2.24566901        2.24970871       -1.21672943  Se
            atom         2.85360535       -0.01440570       -1.90027371  Pd
            atom         0.01785393        2.93830524       -1.90018419  Pd
            atom         2.23266983       -2.24879078       -2.70511422  Se
            atom         0.63833108        0.70394538       -2.70505249  Se

  Fractional coordinates:
                         L1                L2                L3
       atom_frac        -0.38826254        0.11921821        0.02705124  Se
       atom_frac        -0.11100433       -0.38081593        0.02705121  Se
       atom_frac        -0.00311307       -0.00247684        0.01900127  Pd
       atom_frac         0.50374057        0.49759613        0.01900410  Pd
       atom_frac         0.11004877        0.38090801        0.01216584  Se
       atom_frac         0.39053214       -0.11905507        0.01216757  Se
       atom_frac        -0.11004407       -0.11910310       -0.01216566  Se
       atom_frac        -0.39052861        0.38095440       -0.01216753  Se
       atom_frac         0.49625057       -0.00243939       -0.01900311  Pd
       atom_frac         0.00310485        0.49755789       -0.01900221  Pd
       atom_frac         0.38826801       -0.38079897       -0.02705167  Se
       atom_frac         0.11100770        0.11920258       -0.02705105  Se
------------------------------------------------------------

------------------------------------------------------------------------------
  Final output of selected total energy values:

  The following output summarizes some interesting total energy values
  at the end of a run (AFTER all relaxation, molecular dynamics, etc.).

  | Total energy of the DFT / Hartree-Fock s.c.f. calculation      :       -1087910.736040655 eV
  | Final zero-broadening corrected energy (caution - metals only) :       -1087910.736040655 eV
  | For reference only, the value of 1 Hartree used in FHI-aims is :             27.211384500 eV

  Before relying on these values, please be sure to understand exactly which
  total energy value is referred to by a given number. Different objects may
  all carry the same name 'total energy'. Definitions:

  Total energy of the DFT / Hartree-Fock s.c.f. calculation:
  | Note that this energy does not include ANY quantities calculated after the
  | s.c.f. cycle, in particular not ANY RPA, MP2, etc. many-body perturbation terms.

  Final zero-broadening corrected energy:
  | For metallic systems only, a broadening of the occupation numbers at the Fermi
  | level can be extrapolated back to zero broadening by an electron-gas inspired
  | formula. For all systems that are not real metals, this value can be
  | meaningless and should be avoided.

------------------------------------------------------------------------------
  Methods described in the following list of references were used in this FHI-aims run.
  If you publish the results, please make sure to cite these reference if they apply.
  FHI-aims is an academic code, and for our developers (often, Ph.D. students
  and postdocs), scientific credit in the community is essential.
  Thank you for helping us!

  For any use of FHI-aims, please cite:

    Volker Blum, Ralf Gehrke, Felix Hanke, Paula Havu, Ville Havu,
    Xinguo Ren, Karsten Reuter, and Matthias Scheffler
    'Ab initio molecular simulations with numeric atom-centered orbitals'
    Computer Physics Communications 180, 2175-2196 (2009)
    http://dx.doi.org/10.1016/j.cpc.2009.06.022


  For the analytical stress tensor used in your run, please cite:

    Franz Knuth, Christian Carbogno, Viktor Atalla, Volker Blum, Matthias Scheffler
    'All-electron formalism for total energy strain derivatives and
    stress tensor components for numeric atom-centered orbitals'
    Computer Physics Communications 190, 33-50 (2015).
    http://dx.doi.org/10.1016/j.cpc.2015.01.003


  The scalable eigensolver library ELPA was used in your run.
  ELPA is essential especially for large systems on hundreds or thousands of CPUs.
  For ELPA, please cite:

    Andreas Marek, Volker Blum, Rainer Johanni, Ville Havu, Bruno Lang,
    Thomas Auckenthaler, Alexander Heinecke, Hans-Joachim Bungartz, and Hermann Lederer,
    'The ELPA Library - Scalable Parallel Eigenvalue Solutions
    for Electronic Structure Theory and Computational Science'
    The Journal of Physics: Condensed Matter 26, 213201 (2014).
    http://dx.doi.org/10.1088/0953-8984/26/21/213201


  The ELSI infrastructure was used in your run to solve the Kohn-Sham electronic structure.
  Please check out http://elsi-interchange.org to learn more.
  If scalability is important for your project, please acknowledge ELSI by citing:

    V. W-z. Yu, F. Corsetti, A. Garcia, W. P. Huhn, M. Jacquelin, W. Jia,
    B. Lange, L. Lin, J. Lu, W. Mi, A. Seifitokaldani, A. Vazquez-Mayagoitia,
    C. Yang, H. Yang, and V. Blum
    'ELSI: A unified software interface for Kohn-Sham electronic structure solvers'
    Computer Physics Communications 222, 267-285 (2018).
    http://dx.doi.org/10.1016/j.cpc.2017.09.007


  For the real-space grid partitioning and parallelization used in this calculation, please cite:

    Ville Havu, Volker Blum, Paula Havu, and Matthias Scheffler,
    'Efficient O(N) integration for all-electron electronic structure calculation'
    'using numerically tabulated basis functions'
    Journal of Computational Physics 228, 8367-8379 (2009).
    http://dx.doi.org/10.1016/j.jcp.2009.08.008

  Of course, there are many other important community references, e.g., those cited in the
  above references. Our list is limited to references that describe implementations in the
  FHI-aims code. The reason is purely practical (length of this list) - please credit others as well.

------------------------------------------------------------
          Leaving FHI-aims.
          Date     :  20191128, Time     :  023846.628

          Computational steps:
          | Number of self-consistency cycles          :          190
          | Number of SCF (re)initializations          :           13
          | Number of relaxation steps                 :           12

          Detailed time accounting                     :  max(cpu_time)    wall_clock(cpu1)
          | Total time                                 :     2754.176 s        2752.221 s
          | Preparation time                           :        0.476 s           0.475 s
          | Boundary condition initalization           :        8.668 s           8.628 s
          | Grid partitioning                          :        3.944 s           3.900 s
          | Preloading free-atom quantities on grid    :        2.000 s           1.981 s
          | Free-atom superposition energy             :        0.300 s           0.290 s
          | Total time for integrations                :      330.720 s         330.189 s
          | Total time for solution of K.-S. equations :      457.664 s         457.113 s
          | Total time for EV reorthonormalization     :        4.668 s           3.384 s
          | Total time for density & force components  :     1782.064 s        1780.297 s
          | Total time for mixing & preconditioning    :       13.744 s          13.543 s
          | Total time for Hartree multipole update    :        0.804 s           0.729 s
          | Total time for Hartree multipole sum       :      111.812 s         111.375 s
          | Total time for total energy evaluation     :        0.764 s           0.243 s
          | Total time for scaled ZORA corrections     :        0.000 s           0.000 s
          | Total time for vdW correction              :       37.352 s          37.274 s

          Partial memory accounting:
          | Residual value for overall tracked memory usage across tasks :           0.000 MB (should be 0.000 MB)
          | Peak values for overall tracked memory usage (after allocating wave_pulay):
          |   Minimum:      153.470 MB (on task 64)
          |   Maximum:      165.410 MB (on task  5)
          |   Average:      156.331 MB
          | Largest tracked array allocation (density_matrix_con):
          |   Minimum:       27.321 MB (on task 33)
          |   Maximum:       29.154 MB (on task 30)
          |   Average:       28.282 MB
          Note:  These values currently only include a subset of arrays which are explicitly tracked.
          The "true" memory usage will be greater.

          Have a nice day.
------------------------------------------------------------
