  MPI-parallelism will be employed.
------------------------------------------------------------
          Invoking FHI-aims ...
          Version 171221_1
          Compiled on 2018/11/06 at 11:18:49 on host headnode.

          When using FHI-aims, please cite the following reference:

          Volker Blum, Ralf Gehrke, Felix Hanke, Paula Havu,
          Ville Havu, Xinguo Ren, Karsten Reuter, and Matthias Scheffler,
          'Ab Initio Molecular Simulations with Numeric Atom-Centered Orbitals',
          Computer Physics Communications 180, 2175-2196 (2009)

          For any questions about FHI-aims, please visit the aimsclub website
          with its forums and wiki. Contributions to both the forums and the
          wiki are warmly encouraged - they are for you, and everyone is welcome there.

------------------------------------------------------------



  Date     :  20191128, Time     :  230315.368
  Time zero on CPU 1             :   0.464000000000000E+00  s.
  Internal wall clock time zero  :           344214195.368  s.

  FHI-aims created a unique identifier for this run for later identification
  aims_uuid : 674385BE-5B75-4EF8-A59B-B689C9B1650A

  Using       80 parallel tasks.
  Task        0 on host t030 reporting.
  Task        1 on host t030 reporting.
  Task        2 on host t030 reporting.
  Task        3 on host t030 reporting.
  Task        4 on host t030 reporting.
  Task        5 on host t030 reporting.
  Task        6 on host t030 reporting.
  Task        7 on host t030 reporting.
  Task        8 on host t030 reporting.
  Task        9 on host t030 reporting.
  Task       10 on host t030 reporting.
  Task       11 on host t030 reporting.
  Task       12 on host t030 reporting.
  Task       13 on host t030 reporting.
  Task       14 on host t030 reporting.
  Task       15 on host t030 reporting.
  Task       16 on host t030 reporting.
  Task       17 on host t030 reporting.
  Task       18 on host t030 reporting.
  Task       19 on host t030 reporting.
  Task       20 on host t029 reporting.
  Task       21 on host t029 reporting.
  Task       22 on host t029 reporting.
  Task       23 on host t029 reporting.
  Task       24 on host t029 reporting.
  Task       25 on host t029 reporting.
  Task       26 on host t029 reporting.
  Task       27 on host t029 reporting.
  Task       28 on host t029 reporting.
  Task       29 on host t029 reporting.
  Task       30 on host t029 reporting.
  Task       31 on host t029 reporting.
  Task       32 on host t029 reporting.
  Task       33 on host t029 reporting.
  Task       34 on host t029 reporting.
  Task       35 on host t029 reporting.
  Task       36 on host t029 reporting.
  Task       37 on host t029 reporting.
  Task       38 on host t029 reporting.
  Task       39 on host t029 reporting.
  Task       40 on host t024 reporting.
  Task       41 on host t024 reporting.
  Task       42 on host t024 reporting.
  Task       43 on host t024 reporting.
  Task       44 on host t024 reporting.
  Task       45 on host t024 reporting.
  Task       46 on host t024 reporting.
  Task       47 on host t024 reporting.
  Task       48 on host t024 reporting.
  Task       49 on host t024 reporting.
  Task       50 on host t024 reporting.
  Task       51 on host t024 reporting.
  Task       52 on host t024 reporting.
  Task       53 on host t024 reporting.
  Task       54 on host t024 reporting.
  Task       55 on host t024 reporting.
  Task       56 on host t024 reporting.
  Task       57 on host t024 reporting.
  Task       58 on host t024 reporting.
  Task       59 on host t024 reporting.
  Task       60 on host t021 reporting.
  Task       61 on host t021 reporting.
  Task       62 on host t021 reporting.
  Task       63 on host t021 reporting.
  Task       64 on host t021 reporting.
  Task       65 on host t021 reporting.
  Task       66 on host t021 reporting.
  Task       67 on host t021 reporting.
  Task       68 on host t021 reporting.
  Task       69 on host t021 reporting.
  Task       70 on host t021 reporting.
  Task       71 on host t021 reporting.
  Task       72 on host t021 reporting.
  Task       73 on host t021 reporting.
  Task       74 on host t021 reporting.
  Task       75 on host t021 reporting.
  Task       76 on host t021 reporting.
  Task       77 on host t021 reporting.
  Task       78 on host t021 reporting.
  Task       79 on host t021 reporting.

  Performing system and environment tests:
  | Environment variable OMP_NUM_THREADS correctly set to 1.
  | Stacksize not measured: no C compiler
  | Checking for scalapack...
  | Testing pdtran()...
  | All pdtran() tests passed.

  Obtaining array dimensions for all initial allocations:
  
  -----------------------------------------------------------------------
  Parsing control.in (first pass over file, find array dimensions only).
  The contents of control.in will be repeated verbatim below
  unless switched off by setting 'verbatim_writeout .false.' .
  in the first line of control.in .
  -----------------------------------------------------------------------
  
  #===============================================================================
  # FHI-aims file: ./control.in
  # Created using the Atomic Simulation Environment (ASE)
  # Wed Nov 27 20:14:37 2019
  #
  # List of parameters used to initialize the calculator:
  #     adjust_scf : once 2
  #     spin : none
  #     k_grid : [18, 18, 18]
  #     relativistic : ('atomic_zora', 'scalar')
  #     species_dir : /chemsoft/FHI-aims/stable/species_defaults/tight
  #     xc : pbe
  #===============================================================================
  adjust_scf                         once 2
  ### geometry optimisation section
  relax_geometry    bfgs    1E-2
  relax_unit_cell       fixed_angles
  spin                               none
  k_grid                             18 18 18
  relativistic                       atomic_zora scalar
  xc                                 pbe
  many_body_dispersion
  #===============================================================================
  
  ################################################################################
  #
  #  FHI-aims code project
  # Volker Blum, Fritz Haber Institute Berlin, 2009
  #
  #  Suggested "tight" defaults for B atom (to be pasted into control.in file)
  #
  ################################################################################
    species        B
  #     global species definitions
      nucleus             5
      mass                10.811
  #
      l_hartree           6
  #
      cut_pot             4.0  2.0  1.0
      basis_dep_cutoff    1e-4
  #
      radial_base         32 7.0
      radial_multiplier   2
      angular_grids       specified
        division   0.3742  110
        division   0.5197  194
        division   0.5753  302
        division   0.7664  434
  #      division   0.8392  770
  #      division   1.6522  974
  #      outer_grid   974
        outer_grid  434
  ################################################################################
  #
  #  Definition of "minimal" basis
  #
  ################################################################################
  #     valence basis states
      valence      2  s   2.
      valence      2  p   1.
  #     ion occupancy
      ion_occ      2  s   1.
  ################################################################################
  #
  #  Suggested additional basis functions. For production calculations,
  #  uncomment them one after another (the most important basis functions are
  #  listed first).
  #
  #  Constructed for dimers: 1.25 A, 1.625 A, 2.5 A, 3.5 A
  #
  ################################################################################
  #  "First tier" - improvements: -710.52 meV to -92.39 meV
       hydro 2 p 1.4
       hydro 3 d 4.8
       hydro 2 s 4
  #  "Second tier" - improvements: -33.88 meV to -2.20 meV
       hydro 4 f 7.8
       hydro 3 p 4.2
       hydro 3 s 3.3
       hydro 5 g 11.2
       hydro 3 d 5.4
  #  "Third tier" - improvements: -1.28 meV to -0.36 meV
  #     hydro 2 p 4.7
  #     hydro 2 s 8.4
  #     hydro 4 d 5.8
  #  "Fourth tier" - improvements: -0.25 meV to -0.12 meV
  #     hydro 3 p 2.2
  #     hydro 3 s 3
  #     hydro 4 f 9.8
  #     hydro 5 g 12.8
  #     hydro 4 d 10
  #  Further functions
  #     hydro 4 f 14
  #     hydro 3 p 12.4
  ################################################################################
  #
  # For methods that use the localized form of the "resolution of identity" for
  # the two-electron Coulomb operator (RI_method LVL), particularly Hartree-Fock and
  # hybrid density functional calculations, the highest accuracy can be obtained by
  # uncommenting the line beginning with "for_aux"  below, thus adding an extra g radial
  # function to the construction of the product basis set for the expansion.
  # See Ref. New J. Phys. 17, 093020 (2015) for more information, particularly Figs. 1 and 6.
  #
  ################################################################################
  #
  # for_aux hydro 5 g 6.0
  ################################################################################
  #
  #  FHI-aims code project
  # Volker Blum, Fritz Haber Institute Berlin, 2009
  #
  #  Suggested "tight" defaults for N atom (to be pasted into control.in file)
  #
  ################################################################################
    species        N
  #     global species definitions
      nucleus             7
      mass                14.0067
  #
      l_hartree           6
  #
      cut_pot             4.0  2.0  1.0
      basis_dep_cutoff    1e-4
  #
      radial_base         35 7.0
      radial_multiplier   2
      angular_grids       specified
        division   0.1841   50
        division   0.3514  110
        division   0.5126  194
        division   0.6292  302
        division   0.6939  434
  #      division   0.7396  590
  #      division   0.7632  770
  #      division   0.8122  974
  #      division   1.1604 1202
  #      outer_grid  974
        outer_grid  434
  ################################################################################
  #
  #  Definition of "minimal" basis
  #
  ################################################################################
  #     valence basis states
      valence      2  s   2.
      valence      2  p   3.
  #     ion occupancy
      ion_occ      2  s   1.
      ion_occ      2  p   2.
  ################################################################################
  #
  #  Suggested additional basis functions. For production calculations,
  #  uncomment them one after another (the most important basis functions are
  #  listed first).
  #
  #  Constructed for dimers: 1.0 A, 1.1 A, 1.5 A, 2.0 A, 3.0 A
  #
  ################################################################################
  #  "First tier" - improvements: -1193.42 meV to -220.60 meV
       hydro 2 p 1.8
       hydro 3 d 6.8
       hydro 3 s 5.8
  #  "Second tier" - improvements: -80.21 meV to -6.86 meV
       hydro 4 f 10.8
       hydro 3 p 5.8
       hydro 1 s 0.8
       hydro 5 g 16
       hydro 3 d 4.9
  #  "Third tier" - improvements: -4.29 meV to -0.53 meV
  #     hydro 3 s 16
  #     ionic 2 p auto
  #     hydro 3 d 6.6
  #     hydro 4 f 11.6
  #  "Fourth tier" - improvements: -0.75 meV to -0.25 meV
  #     hydro 2 p 4.5
  #     hydro 2 s 2.4
  #     hydro 5 g 14.4
  #     hydro 4 d 14.4
  #     hydro 4 f 16.8
  # Further basis functions - -0.21 meV and below
  #     hydro 3 p 14.8
  #     hydro 3 s 4.4
  #     hydro 3 d 19.6
  #     hydro 5 g 12.8
  ################################################################################
  #
  # For methods that use the localized form of the "resolution of identity" for
  # the two-electron Coulomb operator (RI_method LVL), particularly Hartree-Fock and
  # hybrid density functional calculations, the highest accuracy can be obtained by
  # uncommenting the line beginning with "for_aux"  below, thus adding an extra g radial
  # function to the construction of the product basis set for the expansion.
  # See Ref. New J. Phys. 17, 093020 (2015) for more information, particularly Figs. 1 and 6.
  #
  ################################################################################
  #
  # for_aux hydro 5 g 6.0
  
  -----------------------------------------------------------------------
  Completed first pass over input file control.in .
  -----------------------------------------------------------------------
  
  
  -----------------------------------------------------------------------
  Parsing geometry.in (first pass over file, find array dimensions only).
  The contents of geometry.in will be repeated verbatim below
  unless switched off by setting 'verbatim_writeout .false.' .
  in the first line of geometry.in .
  -----------------------------------------------------------------------
  
  #=======================================================
  # FHI-aims file: ./geometry.in
  # Created using the Atomic Simulation Environment (ASE)
  # Wed Nov 27 20:14:37 2019
  #=======================================================
  lattice_vector 2.5124280400000001 0.0000000000000000 0.0000000000000000
  lattice_vector -1.2562140200000000 2.1758265099999998 0.0000000000000000
  lattice_vector 0.0000000000000000 0.0000000000000000 7.7072650100000004
  atom -0.0000012600000000 1.4505517299999999 1.9268162499999999 B
  atom 1.2562152799999999 0.7252747800000000 5.7804487599999996 B
  atom -0.0000012600000000 1.4505517299999999 5.7804487599999996 N
  atom 1.2562152799999999 0.7252747800000000 1.9268162499999999 N
  
  -----------------------------------------------------------------------
  Completed first pass over input file geometry.in .
  -----------------------------------------------------------------------
  

  Basic array size parameters:
  | Number of species                 :        2
  | Number of atoms                   :        4
  | Number of lattice vectors         :        3
  | Max. basis fn. angular momentum   :        4
  | Max. atomic/ionic basis occupied n:        2
  | Max. number of basis fn. types    :        2
  | Max. radial fns per species/type  :        8
  | Max. logarithmic grid size        :     1290
  | Max. radial integration grid size :       71
  | Max. angular integration grid size:      434
  | Max. angular grid division number :        8
  | Radial grid for Hartree potential :     1290
  | Number of spin channels           :        1

------------------------------------------------------------
          Reading file control.in.
------------------------------------------------------------
  S.C.F. convergence parameters will be adjusted in iteration number     2 of the first full s.c.f. cycle only.
  Geometry relaxation: Modified BFGS - TRM (trust radius method, i.e., trusted quadratic extrapolation).
  Convergence accuracy for geometry relaxation: Maximum force <   0.100000E-01 eV/A.
  Spin treatment: No spin polarisation.
  Found k-point grid:        18        18        18
  Scalar relativistic treatment of kinetic energy: on-site free-atom approximation to ZORA.
  XC: Using PBE gradient-corrected functionals.
  Using the default MBD implementation with analytical forces
 
  Reading configuration options for species B                   .
  | Found nuclear charge :   5.0000
  | Found atomic mass :    10.8110000000000      amu
  | Found l_max for Hartree potential  :   6
  | Found cutoff potl. onset [A], width [A], scale factor :    4.00000    2.00000    1.00000
  | Threshold for basis-dependent cutoff potential is   0.100000E-03
  | Found data for basic radial integration grid :    32 points, outermost radius =    7.000 A
  | Found multiplier for basic radial grid :   2
  | Found angular grid specification: user-specified.
  | Specified grid contains     5 separate shells.
  | Check grid settings after all constraints further below.
  | Found free-atom valence shell :  2 s   2.000
  | Found free-atom valence shell :  2 p   1.000
  | No ionic wave fns used. Skipping ion_occ.
  | Found hydrogenic basis function :  2 p   1.400
  | Found hydrogenic basis function :  3 d   4.800
  | Found hydrogenic basis function :  2 s   4.000
  | Found hydrogenic basis function :  4 f   7.800
  | Found hydrogenic basis function :  3 p   4.200
  | Found hydrogenic basis function :  3 s   3.300
  | Found hydrogenic basis function :  5 g  11.200
  | Found hydrogenic basis function :  3 d   5.400
  Species B                   : Missing cutoff potential type.
  Defaulting to exp(1/x)/(1-x)^2 type cutoff potential.
  Species B : No 'logarithmic' tag. Using default grid for free atom:
  | Default logarithmic grid data [bohr] : 0.1000E-03 0.1000E+03 0.1012E+01
  Species B : On-site basis accuracy parameter (for Gram-Schmidt orthonormalisation) not specified.
  Using default value basis_acc =  0.1000000E-03.
  Species B                   : Using default innermost maximum threshold i_radial=  2 for radial functions.
  Species B                   : Default cutoff onset for free atom density etc. : 0.40000000E+01 AA.
  Species B                   : Basic radial grid will be enhanced according to radial_multiplier =   2, to contain    65 grid points.
 
  Reading configuration options for species N                   .
  | Found nuclear charge :   7.0000
  | Found atomic mass :    14.0067000000000      amu
  | Found l_max for Hartree potential  :   6
  | Found cutoff potl. onset [A], width [A], scale factor :    4.00000    2.00000    1.00000
  | Threshold for basis-dependent cutoff potential is   0.100000E-03
  | Found data for basic radial integration grid :    35 points, outermost radius =    7.000 A
  | Found multiplier for basic radial grid :   2
  | Found angular grid specification: user-specified.
  | Specified grid contains     6 separate shells.
  | Check grid settings after all constraints further below.
  | Found free-atom valence shell :  2 s   2.000
  | Found free-atom valence shell :  2 p   3.000
  | No ionic wave fns used. Skipping ion_occ.
  | No ionic wave fns used. Skipping ion_occ.
  | Found hydrogenic basis function :  2 p   1.800
  | Found hydrogenic basis function :  3 d   6.800
  | Found hydrogenic basis function :  3 s   5.800
  | Found hydrogenic basis function :  4 f  10.800
  | Found hydrogenic basis function :  3 p   5.800
  | Found hydrogenic basis function :  1 s   0.800
  | Found hydrogenic basis function :  5 g  16.000
  | Found hydrogenic basis function :  3 d   4.900
  Species N                   : Missing cutoff potential type.
  Defaulting to exp(1/x)/(1-x)^2 type cutoff potential.
  Species N : No 'logarithmic' tag. Using default grid for free atom:
  | Default logarithmic grid data [bohr] : 0.1000E-03 0.1000E+03 0.1012E+01
  Species N : On-site basis accuracy parameter (for Gram-Schmidt orthonormalisation) not specified.
  Using default value basis_acc =  0.1000000E-03.
  Species N                   : Using default innermost maximum threshold i_radial=  2 for radial functions.
  Species N                   : Default cutoff onset for free atom density etc. : 0.40000000E+01 AA.
  Species N                   : Basic radial grid will be enhanced according to radial_multiplier =   2, to contain    71 grid points.
  | MBD: Using the same k-grid sampling as DFT
 
  Finished reading input file 'control.in'. Consistency checks are next.
 
  MPI_IN_PLACE appears to work with this MPI implementation.
  | Keeping use_mpi_in_place .true. (see manual).
  Target number of points in a grid batch is not set. Defaulting to  100
  Method for grid partitioning is not set. Defaulting to parallel hash+maxmin partitioning.
  Batch size limit is not set. Defaulting to    200
  By default, will store active basis functions for each batch.
  If in need of memory, prune_basis_once .false. can be used to disable this option.
  communication_type for Hartree potential was not specified.
  Defaulting to calc_hartree .
  Defaulting to Pulay charge density mixer.
  Pulay mixer: Number of relevant iterations not set.
  Defaulting to    8 iterations.
  Pulay mixer: Number of initial linear mixing iterations not set.
  Defaulting to    0 iterations.
  Work space size for distributed Hartree potential not set.
  Defaulting to   0.200000E+03 MB.
  Mixing parameter for charge density mixing has not been set.
  Using default: charge_mix_param =     0.0500.
  The mixing parameter will be adjusted in iteration number     2 of the first full s.c.f. cycle only.
  Algorithm-dependent basis array size parameters:
  | n_max_pulay                         :        8
 * Notice: The s.c.f. convergence criterion sc_accuracy_rho was not provided.
 * We used to stop in this case, and ask the user to provide reasonable
 * scf convergence criteria. However, this led some users to employ criteria
 * that led to extremely long run times, e.g., for simple relaxation.
 * We now preset a default value for sc_accuracy_rho if it is not set.
 * You may still wish to check if this setting is too tight or too loose for your needs.
 * Based on n_atoms, FHI-aims chose sc_accuracy_rho =  0.100000E-05 .
  Maximum number of self-consistency iterations not provided.
  Presetting  1000 iterations.
  Presetting      1001 iterations before the initial mixing cycle
  is restarted anyway using the sc_init_iter criterion / keyword.
  Presetting a factor      1.000 between actual scf density residual
  and density convergence criterion sc_accuracy_rho below which sc_init_iter
  takes no effect.
 * No s.c.f. convergence criteria (sc_accuracy_*) were provided in control.in.
 * The run will proceed with a reasonable default guess, but please check whether.
 * the s.c.f. cycles seem to take too much or too little time.
  No maximum number of relaxation steps, defaulting to     1000
  Default initial Hessian is Lindh matrix (thres = 15.00) plus  0.200000E+01 eV/A^2 times unity.
  No maximum energy tolerance for TRM/BFGS moves, defaulting to   0.200000E-03
  No harmonic length scale. Defaulting to   0.250000E-01 A.
  No trust radius initializer. Defaulting to   0.200000E+00 A.
  Unit cell relaxation: Restricted relaxation with fixed angles between lattice vectors.
  Unit cell relaxation: Analytical stress will be used.
  Analytical stress will be computed.
  Analytical stress calculation: Only the upper triangle is calculated.
                                 Final output is symmetrized.
  Analytical stress calculation: scf convergence accuracy of stress not set.
                                 Analytical stress self-consistency will not be checked explicitly.
                                 Be sure to set other criteria like sc_accuracy_rho tight enough.
  Force calculation: scf convergence accuracy of forces not set.
  Defaulting to 'sc_accuracy_forces not_checked'.
  Handling of forces: Unphysical translation and rotation will be removed from forces.
  No accuracy limit for integral partition fn. given. Defaulting to  0.1000E-14.
  No threshold value for u(r) in integrations given. Defaulting to  0.1000E-05.
  No occupation type (smearing scheme) given. Defaulting to Gaussian broadening, width =  0.1000E-01 eV.
  The width will be adjusted in iteration number     2 of the first full s.c.f. cycle only.
  S.C.F. convergence parameters will be adjusted in iteration number     2 of the first full s.c.f. cycle only.
  No accuracy for occupation numbers given. Defaulting to  0.1000E-12.
  No threshold value for occupation numbers given. Defaulting to  0.0000E+00.
  No accuracy for fermi level given. Defaulting to  0.1000E-19.
  Maximum # of iterations to find E_F not set. Defaulting to  200.
  Preferred method for the eigenvalue solver ('KS_method') not specified in 'control.in'.
  Defaulting to serial version, 'lapack_fast', since more k-points than CPUs available.
  Will not use alltoall communication since running on < 1024 CPUs.
  Threshold for basis singularities not set.
  Default threshold for basis singularities:  0.1000E-04
  partition_type (choice of integration weights) for integrals was not specified.
  | Using a version of the partition function of Stratmann and coworkers ('stratmann_smoother').
  | At each grid point, the set of atoms used to build the partition table is smoothly restricted to
  | only those atoms whose free-atom density would be non-zero at that grid point.
  Partitioning for Hartree potential was not defined. Using partition_type for integrals.
  | Adjusted default value of keyword multip_moments_threshold to:       0.10000000E-11
  | This value may affect high angular momentum components of the Hartree potential in periodic systems.
  Angular momentum expansion for Kerker preconditioner not set explicitly.
  | Using default value of   0
  No explicit requirement for turning off preconditioner.
  | By default, it will be turned off when the charge convergence reaches
  | sc_accuracy_rho  =   0.100000E-05
  No special mixing parameter while Kerker preconditioner is on.
  Using default: charge_mix_param =     0.0500.
  No q(lm)/r^(l+1) cutoff set for long-range Hartree potential.
  | Using default value of  0.100000E-09 .
  | Verify using the multipole_threshold keyword.
  Defaulting to new monopole extrapolation.
  Density update method: automatic selection selected.
  Using density matrix based charge density update.
  Using density matrix based charge density update.
  Using packed matrix style: index .
  Geometry relaxation: A file "geometry.in.next_step" is written out by default after each step.
  | This file contains the geometry of the current relaxation step as well as
  | the current Hessian matrix needed to restart the relaxation algorithm.
  | If you do not want part or all of this information, use the keywords
  | "write_restart_geometry" or "hessian_to_restart_geometry" to switch the output off.
  Defaulting to use time-reversal symmetry for k-point grid.
------------------------------------------------------------


------------------------------------------------------------
          Reading geometry description geometry.in.
------------------------------------------------------------
  Input structure read successfully.
  The structure contains        4 atoms,  and a total of         24.000 electrons.

  Input geometry:
  | Unit cell:
  |        2.51242804        0.00000000        0.00000000
  |       -1.25621402        2.17582651        0.00000000
  |        0.00000000        0.00000000        7.70726501
  | Atomic structure:
  |       Atom                x [A]            y [A]            z [A]
  |    1: Species B            -0.00000126        1.45055173        1.92681625
  |    2: Species B             1.25621528        0.72527478        5.78044876
  |    3: Species N            -0.00000126        1.45055173        5.78044876
  |    4: Species N             1.25621528        0.72527478        1.92681625

  Lattice parameters for 3D lattice (in Angstroms) :     2.512428    2.512428    7.707265
  Angle(s) between unit vectors (in degrees)      :    90.000000   90.000000  120.000000

  |

  | The smallest distance between any two atoms is         1.45054955 AA.
  |
  | The first atom of this pair is atom number                      1 .
  | The second atom of this pair is atom number                     4 .
  | Wigner-Seitz cell of the first atom image           0     1     0 .
  | (The Wigner-Seitz cell of the second atom is 0 0 0  by definition.)

  Quantities derived from the lattice vectors:
  | Reciprocal lattice vector 1:  2.500842  1.443862  0.000000
  | Reciprocal lattice vector 2: -0.000000  2.887723  0.000000
  | Reciprocal lattice vector 3:  0.000000  0.000000  0.815229
  | Unit cell volume                               :   0.421326E+02  A^3

  Range separation radius for Ewald summation (hartree_convergence_parameter):      3.03973240 bohr.

  Fractional coordinates:
                         L1                L2                L3
       atom_frac         0.33333300        0.66666700        0.25000000  B
       atom_frac         0.66666700        0.33333300        0.75000000  B
       atom_frac         0.33333300        0.66666700        0.75000000  N
       atom_frac         0.66666700        0.33333300        0.25000000  N

  Number of empty states per atom not set in control.in - providing a guess from actual geometry.
  | Total number of empty states used during s.c.f. cycle:       12
  If you use a very high smearing, use empty_states (per atom!) in control.in to increase this value.

  Structure-dependent array size parameters: 
  | Maximum number of distinct radial functions  :       22
  | Maximum number of basis functions            :      156
  | Number of Kohn-Sham states (occupied + empty):       24
------------------------------------------------------------

------------------------------------------------------------
          Preparing all fixed parts of the calculation.
------------------------------------------------------------
  Determining machine precision:
    2.225073858507201E-308
  Setting up grids for atomic and cluster calculations.

  Creating wave function, potential, and density for free atoms.

  Species: B

  List of occupied orbitals and eigenvalues:
    n    l              occ      energy [Ha]    energy [eV]
    1    0           2.0000        -6.635780      -180.5688
    2    0           2.0000        -0.345517        -9.4020
    2    1           1.0000        -0.130792        -3.5590


  Species: N

  List of occupied orbitals and eigenvalues:
    n    l              occ      energy [Ha]    energy [eV]
    1    0           2.0000       -14.144983      -384.9046
    2    0           2.0000        -0.682735       -18.5782
    2    1           3.0000        -0.260361        -7.0848

  Creating fixed part of basis set: Ionic, confined, hydrogenic.
 
  B                    hydrogenic:
 
  List of hydrogenic basis orbitals: 
    n    l      effective z      eigenvalue [eV]  inner max. [A]     outer max. [A]     outer radius [A]   
    2    1         1.400000        -6.6027           1.494848           1.494848           5.462314
    3    2         4.800000       -34.8303           0.986467           0.986467           4.893206
    2    0         4.000000       -54.4226           0.101523           0.692014           3.878983
    4    3         7.800000       -51.7355           1.087819           1.087819           4.716999
    3    1         4.200000       -26.6660           0.380156           1.513234           5.395944
    3    0         3.300000       -16.4170           0.119010           2.079440           5.462314
    5    4        11.200000       -68.2678           1.185008           1.185008           4.659684
    3    2         5.400000       -44.0822           0.883689           0.883689           4.491886
 
 
  N                    hydrogenic:
 
  List of hydrogenic basis orbitals: 
    n    l      effective z      eigenvalue [eV]  inner max. [A]     outer max. [A]     outer radius [A]   
    2    1         1.800000       -11.0118           1.177451           1.177451           5.427479
    3    2         6.800000       -69.9029           0.704619           0.704619           3.854246
    3    0         5.800000       -50.8549           0.067388           1.191934           4.629968
    4    3        10.800000       -99.1854           0.786571           0.786571           3.761152
    3    1         5.800000       -50.8549           0.274880           1.094176           4.518138
    1    0         0.800000        -8.7059           0.662839           0.662839           5.361532
    5    4        16.000000      -139.3222           0.825990           0.825990           3.625711
    3    2         4.900000       -36.2967           0.968267           0.968267           4.862000
 

  Adding cutoff potential to free-atom effective potential.
  Creating atomic-like basis functions for current effective potential.

  Species B                   :

  List of atomic basis orbitals and eigenvalues:
    n    l      energy [Ha]    energy [eV]    outer radius [A]
    1    0        -6.635780      -180.5688       2.349843
    2    0        -0.345517        -9.4020       5.330380
    2    1        -0.130792        -3.5590       5.395944


  Species N                   :

  List of atomic basis orbitals and eigenvalues:
    n    l      energy [Ha]    energy [eV]    outer radius [A]
    1    0       -14.144983      -384.9046       1.637919
    2    0        -0.682735       -18.5782       5.168461
    2    1        -0.260361        -7.0848       5.361532

  Assembling full basis from fixed parts.
  | Species B :   atomic orbital   1 s accepted.
  | Species B :    hydro orbital   2 s accepted.
  | Species B :   atomic orbital   2 s accepted.
  | Species B :    hydro orbital   3 s accepted.
  | Species B :   atomic orbital   2 p accepted.
  | Species B :    hydro orbital   3 p accepted.
  | Species B :    hydro orbital   2 p accepted.
  | Species B :    hydro orbital   3 d accepted.
  | Species B :    hydro orbital   3 d accepted.
  | Species B :    hydro orbital   4 f accepted.
  | Species B :    hydro orbital   5 g accepted.
  | Species N :   atomic orbital   1 s accepted.
  | Species N :    hydro orbital   3 s accepted.
  | Species N :   atomic orbital   2 s accepted.
  | Species N :    hydro orbital   1 s accepted.
  | Species N :    hydro orbital   3 p accepted.
  | Species N :   atomic orbital   2 p accepted.
  | Species N :    hydro orbital   2 p accepted.
  | Species N :    hydro orbital   3 d accepted.
  | Species N :    hydro orbital   3 d accepted.
  | Species N :    hydro orbital   4 f accepted.
  | Species N :    hydro orbital   5 g accepted.
 
  Basis size parameters after reduction:
  | Total number of radial functions:       22
  | Total number of basis functions :      156
 
  Per-task memory consumption for arrays in subroutine allocate_ext:
  |           7.270088MB.
  Testing on-site integration grid accuracy.
  |  Species  Function  <phi|h_atom|phi> (log., in eV)  <phi|h_atom|phi> (rad., in eV)
           1        1               -180.5687569307               -180.5687561212
           1        2                 -7.1438314513                 -7.1438317353
           1        3                 12.0187568333                 12.0189574632
           1        4                 26.0253586390                 26.0301574813
           1        5                 -3.5612258789                 -3.5609079337
           1        6                 16.4693418663                 16.4693461551
           1        7                 10.2762796780                 10.2906678683
           1        8                 22.2596710941                 22.2596714919
           1        9                 36.6209961537                 36.6209620977
           1       10                 37.0814692226                 37.0814713082
           1       11                 55.9879741683                 55.9879744600
           2       12               -384.9045837902               -384.9045810034
           2       13                 12.5603464975                 12.5603454947
           2       14                -15.7898975009                -15.7898975784
           2       15                 26.9245114624                 26.9252865213
           2       16                 18.5932197356                 18.5932205974
           2       17                  1.2241635031                  1.2241662162
           2       18                 13.4399987726                 13.4405112381
           2       19                 35.9434723765                 35.9434722970
           2       20                 39.9236994475                 39.9237117159
           2       21                 72.9994981060                 72.9994982100
           2       22                116.4255814538                116.4255814827

  Preparing densities etc. for the partition functions (integrals / Hartree potential).

  Preparations completed.
  max(cpu_time)          :      0.172 s.
  Wall clock time (cpu1) :      0.169 s.
------------------------------------------------------------

------------------------------------------------------------
          Begin self-consistency loop: Initialization.

          Date     :  20191128, Time     :  230315.612
------------------------------------------------------------

  Initializing index lists of integration centers etc. from given atomic structure:
  Mapping all atomic coordinates to central unit cell.

  Initializing the k-points
          Using symmetry for reducing the k-points
  | k-points reduced from:     5832 to     2920
  | Number of k-points                             :      2920
  The eigenvectors in the calculations are COMPLEX.
  | K-points in task   0:        36
  | K-points in task   1:        37
  | K-points in task   2:        37
  | K-points in task   3:        37
  | K-points in task   4:        37
  | K-points in task   5:        37
  | K-points in task   6:        37
  | K-points in task   7:        37
  | K-points in task   8:        37
  | K-points in task   9:        37
  | K-points in task  10:        37
  | K-points in task  11:        37
  | K-points in task  12:        37
  | K-points in task  13:        37
  | K-points in task  14:        37
  | K-points in task  15:        37
  | K-points in task  16:        37
  | K-points in task  17:        37
  | K-points in task  18:        37
  | K-points in task  19:        37
  | K-points in task  20:        37
  | K-points in task  21:        37
  | K-points in task  22:        37
  | K-points in task  23:        37
  | K-points in task  24:        37
  | K-points in task  25:        37
  | K-points in task  26:        37
  | K-points in task  27:        37
  | K-points in task  28:        37
  | K-points in task  29:        37
  | K-points in task  30:        37
  | K-points in task  31:        37
  | K-points in task  32:        37
  | K-points in task  33:        37
  | K-points in task  34:        37
  | K-points in task  35:        37
  | K-points in task  36:        37
  | K-points in task  37:        37
  | K-points in task  38:        37
  | K-points in task  39:        37
  | K-points in task  40:        37
  | K-points in task  41:        36
  | K-points in task  42:        36
  | K-points in task  43:        36
  | K-points in task  44:        36
  | K-points in task  45:        36
  | K-points in task  46:        36
  | K-points in task  47:        36
  | K-points in task  48:        36
  | K-points in task  49:        36
  | K-points in task  50:        36
  | K-points in task  51:        36
  | K-points in task  52:        36
  | K-points in task  53:        36
  | K-points in task  54:        36
  | K-points in task  55:        36
  | K-points in task  56:        36
  | K-points in task  57:        36
  | K-points in task  58:        36
  | K-points in task  59:        36
  | K-points in task  60:        36
  | K-points in task  61:        36
  | K-points in task  62:        36
  | K-points in task  63:        36
  | K-points in task  64:        36
  | K-points in task  65:        36
  | K-points in task  66:        36
  | K-points in task  67:        36
  | K-points in task  68:        36
  | K-points in task  69:        36
  | K-points in task  70:        36
  | K-points in task  71:        36
  | K-points in task  72:        36
  | K-points in task  73:        36
  | K-points in task  74:        36
  | K-points in task  75:        36
  | K-points in task  76:        36
  | K-points in task  77:        36
  | K-points in task  78:        36
  | K-points in task  79:        36
  | Number of basis functions in the Hamiltonian integrals :      6976
  | Number of basis functions in a single unit cell        :       156
  | Number of centers in hartree potential         :      1404
  | Number of centers in hartree multipole         :      1210
  | Number of centers in electron density summation:       824
  | Number of centers in basis integrals           :       932
  | Number of centers in integrals                 :       282
  | Number of centers in hamiltonian               :       840
  | Consuming      12866 KiB for k_phase.
  | Number of super-cells (origin) [n_cells]                     :        1575
  | Number of super-cells (after PM_index) [n_cells]             :         282
  | Number of super-cells in hamiltonian [n_cells_in_hamiltonian]:         282
  | Size of matrix packed + index [n_hamiltonian_matrix_size] :     1079663
  Initializing relaxation algorithms.
  Partitioning the integration grid into batches with parallel hashing+maxmin method.
  | Number of batches:     1086
  | Maximal batch size:     106
  | Minimal batch size:      51
  | Average batch size:      71.573
  | Standard deviation of batch sizes:      11.451

  Integration load balanced across    80 MPI tasks.
  Work distribution over tasks is as follows:
  Task     0 has        944 integration points.
  Task     1 has        979 integration points.
  Task     2 has        985 integration points.
  Task     3 has        993 integration points.
  Task     4 has        940 integration points.
  Task     5 has        993 integration points.
  Task     6 has       1001 integration points.
  Task     7 has        996 integration points.
  Task     8 has        979 integration points.
  Task     9 has        940 integration points.
  Task    10 has        987 integration points.
  Task    11 has        971 integration points.
  Task    12 has        992 integration points.
  Task    13 has        998 integration points.
  Task    14 has        983 integration points.
  Task    15 has        969 integration points.
  Task    16 has        967 integration points.
  Task    17 has        953 integration points.
  Task    18 has        995 integration points.
  Task    19 has        959 integration points.
  Task    20 has        936 integration points.
  Task    21 has        951 integration points.
  Task    22 has        998 integration points.
  Task    23 has        953 integration points.
  Task    24 has       1005 integration points.
  Task    25 has        983 integration points.
  Task    26 has        946 integration points.
  Task    27 has       1003 integration points.
  Task    28 has        945 integration points.
  Task    29 has        933 integration points.
  Task    30 has        970 integration points.
  Task    31 has        958 integration points.
  Task    32 has        975 integration points.
  Task    33 has        948 integration points.
  Task    34 has        972 integration points.
  Task    35 has        997 integration points.
  Task    36 has        959 integration points.
  Task    37 has        999 integration points.
  Task    38 has        970 integration points.
  Task    39 has        985 integration points.
  Task    40 has        998 integration points.
  Task    41 has        943 integration points.
  Task    42 has        994 integration points.
  Task    43 has       1001 integration points.
  Task    44 has       1001 integration points.
  Task    45 has        994 integration points.
  Task    46 has        992 integration points.
  Task    47 has        923 integration points.
  Task    48 has        963 integration points.
  Task    49 has        996 integration points.
  Task    50 has        953 integration points.
  Task    51 has        974 integration points.
  Task    52 has        951 integration points.
  Task    53 has        968 integration points.
  Task    54 has        971 integration points.
  Task    55 has        976 integration points.
  Task    56 has        935 integration points.
  Task    57 has        980 integration points.
  Task    58 has        964 integration points.
  Task    59 has        957 integration points.
  Task    60 has        954 integration points.
  Task    61 has        968 integration points.
  Task    62 has        959 integration points.
  Task    63 has        977 integration points.
  Task    64 has        936 integration points.
  Task    65 has        964 integration points.
  Task    66 has        972 integration points.
  Task    67 has        973 integration points.
  Task    68 has        946 integration points.
  Task    69 has       1004 integration points.
  Task    70 has       1007 integration points.
  Task    71 has        929 integration points.
  Task    72 has        982 integration points.
  Task    73 has        922 integration points.
  Task    74 has        991 integration points.
  Task    75 has        976 integration points.
  Task    76 has        994 integration points.
  Task    77 has        985 integration points.
  Task    78 has        990 integration points.
  Task    79 has        955 integration points.
  Initializing partition tables, free-atom densities, potentials, etc. across the integration grid (initialize_grid_storage).
  | initialize_grid_storage: Actual outermost partition radius vs. multipole_radius_free
  | (-- VB: in principle, multipole_radius_free should be larger, hence this output)
  | Species        1: Confinement radius =              6.000000000000000 AA, multipole_radius_free =              6.023523403561800 AA.
  | Species        1: outer_partition_radius set to              6.023523403561800 AA .
  | Species        2: Confinement radius =              6.000000000000000 AA, multipole_radius_free =              6.058726835495003 AA.
  | Species        2: outer_partition_radius set to              6.058726835495003 AA .
  | Original list of interatomic distances with         932 x        932 entries is created.
  | Net number of integration points:    77728
  | of which are non-zero points    :    56256
  | Numerical average free-atom electrostatic potential    :    -11.70753578 eV
  Renormalizing the initial density to the exact electron count on the 3D integration grid.
  | Initial density: Formal number of electrons (from input files) :      24.0000000000
  | Integrated number of electrons on 3D grid     :      24.0000698369
  | Charge integration error                      :       0.0000698369
  | Normalization factor for density and gradient :       0.9999970901
  Obtaining max. number of non-zero basis functions in each batch (get_n_compute_maxes).
  | Maximal number of non-zero basis functions:     2107 in task     0
  | Maximal number of non-zero basis functions:     2109 in task     1
  | Maximal number of non-zero basis functions:     2093 in task     2
  | Maximal number of non-zero basis functions:     2061 in task     3
  | Maximal number of non-zero basis functions:     2132 in task     4
  | Maximal number of non-zero basis functions:     2086 in task     5
  | Maximal number of non-zero basis functions:     2106 in task     6
  | Maximal number of non-zero basis functions:     2121 in task     7
  | Maximal number of non-zero basis functions:     2056 in task     8
  | Maximal number of non-zero basis functions:     2056 in task     9
  | Maximal number of non-zero basis functions:     2062 in task    10
  | Maximal number of non-zero basis functions:     2111 in task    11
  | Maximal number of non-zero basis functions:     2067 in task    12
  | Maximal number of non-zero basis functions:     2039 in task    13
  | Maximal number of non-zero basis functions:     2081 in task    14
  | Maximal number of non-zero basis functions:     2070 in task    15
  | Maximal number of non-zero basis functions:     2091 in task    16
  | Maximal number of non-zero basis functions:     2042 in task    17
  | Maximal number of non-zero basis functions:     2056 in task    18
  | Maximal number of non-zero basis functions:     2097 in task    19
  | Maximal number of non-zero basis functions:     2128 in task    20
  | Maximal number of non-zero basis functions:     2034 in task    21
  | Maximal number of non-zero basis functions:     2088 in task    22
  | Maximal number of non-zero basis functions:     2111 in task    23
  | Maximal number of non-zero basis functions:     2111 in task    24
  | Maximal number of non-zero basis functions:     2080 in task    25
  | Maximal number of non-zero basis functions:     2051 in task    26
  | Maximal number of non-zero basis functions:     2066 in task    27
  | Maximal number of non-zero basis functions:     2092 in task    28
  | Maximal number of non-zero basis functions:     2036 in task    29
  | Maximal number of non-zero basis functions:     2097 in task    30
  | Maximal number of non-zero basis functions:     2097 in task    31
  | Maximal number of non-zero basis functions:     2097 in task    32
  | Maximal number of non-zero basis functions:     2038 in task    33
  | Maximal number of non-zero basis functions:     2054 in task    34
  | Maximal number of non-zero basis functions:     2084 in task    35
  | Maximal number of non-zero basis functions:     2081 in task    36
  | Maximal number of non-zero basis functions:     2067 in task    37
  | Maximal number of non-zero basis functions:     2108 in task    38
  | Maximal number of non-zero basis functions:     2035 in task    39
  | Maximal number of non-zero basis functions:     2093 in task    40
  | Maximal number of non-zero basis functions:     2074 in task    41
  | Maximal number of non-zero basis functions:     2062 in task    42
  | Maximal number of non-zero basis functions:     2071 in task    43
  | Maximal number of non-zero basis functions:     2135 in task    44
  | Maximal number of non-zero basis functions:     2093 in task    45
  | Maximal number of non-zero basis functions:     2071 in task    46
  | Maximal number of non-zero basis functions:     2091 in task    47
  | Maximal number of non-zero basis functions:     2062 in task    48
  | Maximal number of non-zero basis functions:     2108 in task    49
  | Maximal number of non-zero basis functions:     2101 in task    50
  | Maximal number of non-zero basis functions:     2080 in task    51
  | Maximal number of non-zero basis functions:     2066 in task    52
  | Maximal number of non-zero basis functions:     2103 in task    53
  | Maximal number of non-zero basis functions:     2091 in task    54
  | Maximal number of non-zero basis functions:     2079 in task    55
  | Maximal number of non-zero basis functions:     2102 in task    56
  | Maximal number of non-zero basis functions:     2053 in task    57
  | Maximal number of non-zero basis functions:     2069 in task    58
  | Maximal number of non-zero basis functions:     2084 in task    59
  | Maximal number of non-zero basis functions:     2065 in task    60
  | Maximal number of non-zero basis functions:     2081 in task    61
  | Maximal number of non-zero basis functions:     2039 in task    62
  | Maximal number of non-zero basis functions:     2119 in task    63
  | Maximal number of non-zero basis functions:     2093 in task    64
  | Maximal number of non-zero basis functions:     2037 in task    65
  | Maximal number of non-zero basis functions:     2039 in task    66
  | Maximal number of non-zero basis functions:     2070 in task    67
  | Maximal number of non-zero basis functions:     2042 in task    68
  | Maximal number of non-zero basis functions:     2045 in task    69
  | Maximal number of non-zero basis functions:     2085 in task    70
  | Maximal number of non-zero basis functions:     2102 in task    71
  | Maximal number of non-zero basis functions:     2111 in task    72
  | Maximal number of non-zero basis functions:     2091 in task    73
  | Maximal number of non-zero basis functions:     2119 in task    74
  | Maximal number of non-zero basis functions:     2078 in task    75
  | Maximal number of non-zero basis functions:     2135 in task    76
  | Maximal number of non-zero basis functions:     2086 in task    77
  | Maximal number of non-zero basis functions:     2091 in task    78
  | Maximal number of non-zero basis functions:     2084 in task    79
  Allocating        2.157 MB for KS_eigenvector_complex
  Integrating Hamiltonian matrix: batch-based integration.
  Time summed over all CPUs for integration: real work       61.941 s, elapsed       65.552 s
  Integrating overlap matrix.
  Time summed over all CPUs for integration: real work       49.481 s, elapsed       52.161 s
  Decreasing sparse matrix size:
   Tolerance:  9.999999824516700E-014
   Hamiltonian matrix
  | Array has   819416 nonzero elements out of  1079663 elements
  | Sparsity factor is 0.241
   Overlap matrix
  | Array has   738486 nonzero elements out of  1079663 elements
  | Sparsity factor is 0.316
  New size of hamiltonian matrix:      820905

  Updating Kohn-Sham eigenvalues and eigenvectors using ELSI and the ELPA eigensolver.
  Overlap matrix is nonsingular
  | Lowest eigenvalue of overlap  :  0.58E-04
  | Highest eigenvalue of overlap :  0.11E+02
  Finished singularity check of overlap matrix
  | Time :     0.003 s
  Finished Cholesky decomposition
  | Time :     0.001 s
  Finished transformation to standard eigenproblem
  | Time :     0.001 s
  Starting LAPACK eigensolver
  Finished solving standard eigenproblem
  | Time :     0.003 s
  Finished back-transformation of eigenvectors
  | Time :     0.000 s

  Obtaining occupation numbers and chemical potential using ELSI.
  | Chemical potential (Fermi level):    -4.91542136eV
  Writing Kohn-Sham eigenvalues.
  K-point:       1 at    0.000000    0.000000    0.000000 (in units of recip. lattice)

  State    Occupation    Eigenvalue [Ha]    Eigenvalue [eV]
      1       2.00000         -14.295240         -388.99328
      2       2.00000         -14.295240         -388.99328
      3       2.00000          -6.712354         -182.65243
      4       2.00000          -6.712353         -182.65241
      5       2.00000          -1.066397          -29.01815
      6       2.00000          -1.064544          -28.96771
      7       2.00000          -0.579327          -15.76429
      8       2.00000          -0.556819          -15.15181
      9       2.00000          -0.495956          -13.49564
     10       2.00000          -0.495953          -13.49557
     11       2.00000          -0.495798          -13.49136
     12       2.00000          -0.495796          -13.49129
     13       0.00000          -0.141231           -3.84308
     14       0.00000          -0.037943           -1.03249
     15       0.00000           0.020290            0.55211
     16       0.00000           0.025769            0.70120
     17       0.00000           0.025772            0.70128
     18       0.00000           0.026550            0.72246
     19       0.00000           0.026555            0.72260
     20       0.00000           0.065172            1.77343
     21       0.00000           0.128045            3.48428
     22       0.00000           0.185439            5.04605
     23       0.00000           0.322159            8.76640
     24       0.00000           0.552387           15.03122

  What follows are estimated values for band gap, HOMO, LUMO, etc.
  | They are estimated on a discrete k-point grid and not necessarily exact.
  | For converged numbers, create a DOS and/or band structure plot on a denser k-grid.

  Highest occupied state (VBM) at    -11.26987467 eV (relative to internal zero)
  | Occupation number:      2.00000000
  | K-point:    1468 at    0.333333    0.333333    0.500000 (in units of recip. lattice)

  Lowest unoccupied state (CBM) at    -4.87482216 eV (relative to internal zero)
  | Occupation number:      0.00000001
  | K-point:     119 at    0.000000    0.500000    0.000000 (in units of recip. lattice)

  ESTIMATED overall HOMO-LUMO gap:      6.39505251 eV between HOMO at k-point 1468 and LUMO at k-point 119
  | This appears to be an indirect band gap.
  | Smallest direct gap :      6.48123850 eV for k_point 1468 at    0.000000    0.500000    0.000000 (in units of recip. lattice)
  The gap value is above 0.2 eV. Unless you are using a very sparse k-point grid,
  this system is most likely an insulator or a semiconductor.
  Calculating total energy contributions from superposition of free atom densities.

  Total energy components:
  | Sum of eigenvalues            :         -94.91858763 Ha       -2582.86618433 eV
  | XC energy correction          :         -21.71042778 Ha        -590.77079811 eV
  | XC potential correction       :          27.89425686 Ha         759.04134872 eV
  | Free-atom electrostatic energy:         -70.84297324 Ha       -1927.73538389 eV
  | Hartree energy correction     :           0.00000000 Ha           0.00000000 eV
  | Entropy correction            :          -0.00000000 Ha          -0.00000000 eV
  | ---------------------------
  | Total energy                  :        -159.57773180 Ha       -4342.33101760 eV
  | Total energy, T -> 0          :        -159.57773180 Ha       -4342.33101760 eV  <-- do not rely on this value for anything but (periodic) metals
  | Electronic free energy        :        -159.57773180 Ha       -4342.33101760 eV

  Derived energy quantities:
  | Kinetic energy                :         158.69008170 Ha        4318.17682957 eV
  | Electrostatic energy          :        -296.55738572 Ha       -8069.73704907 eV
  | Energy correction for multipole
  | error in Hartree potential    :           0.00000000 Ha           0.00000000 eV
  | Sum of eigenvalues per atom                           :        -645.71654608 eV
  | Total energy (T->0) per atom                          :       -1085.58275440 eV  <-- do not rely on this value for anything but (periodic) metals
  | Electronic free energy per atom                       :       -1085.58275440 eV
  Initialize hartree_potential_storage
  Max. number of atoms included in rho_multipole:            4

  End scf initialization - timings             :  max(cpu_time)    wall_clock(cpu1)
  | Time for scf. initialization               :        2.808 s           2.804 s
  | Boundary condition initialization          :        0.288 s           0.284 s
  | Relaxation initialization                  :        0.008 s           0.004 s
  | Integration                                :        1.540 s           1.536 s
  | Solution of K.-S. eqns.                    :        0.620 s           0.618 s
  | Grid partitioning                          :        0.076 s           0.071 s
  | Preloading free-atom quantities on grid    :        0.012 s           0.010 s
  | Free-atom superposition energy             :        0.016 s           0.014 s
  | Total energy evaluation                    :        0.004 s           0.002 s

  Partial memory accounting:
  | Current value for overall tracked memory usage on task 0  :          18.575 MB
  | Peak value for overall tracked memory usage on task 0     :          64.677 MB after allocating wave
  | Largest tracked array allocation on task 0 so far         :          35.516 MB  when allocating hamiltonian_shell
  Note:  These values currently only include a subset of arrays which are explicitly tracked.
  The "true" memory usage will be greater.
------------------------------------------------------------

------------------------------------------------------------
          Begin self-consistency iteration #    1

  Date     :  20191128, Time     :  230318.416
------------------------------------------------------------
  Evaluating new KS density using the density matrix
  Evaluating density matrix
  Time summed over all CPUs for getting density from density matrix: real work      118.318 s, elapsed      124.463 s
  Integration grid: deviation in total charge (<rho> - N_e) =   6.593837E-12
  Pulay mixing of updated and previous charge densities.

  Evaluating partitioned Hartree potential by multipole expansion.
  | Analytical far-field extrapolation by fixed multipoles:
  | Hartree multipole sum: apparent total charge =   0.490251E-03
  Summing up the Hartree potential.
  | Estimated reciprocal-space cutoff momentum G_max:         3.27532813 bohr^-1 .
  | Reciprocal lattice points for long-range Hartree potential:     176
  Time summed over all CPUs for potential: real work        7.343 s, elapsed        7.799 s
  | RMS charge density error from multipole expansion :   0.546964E-03
  | Average real-space part of the electrostatic potential :      0.02574247 eV

  Integrating Hamiltonian matrix: batch-based integration.
  Time summed over all CPUs for integration: real work       60.305 s, elapsed       63.625 s

  Updating Kohn-Sham eigenvalues and eigenvectors using ELSI and the ELPA eigensolver.
  Finished Cholesky decomposition
  | Time :     0.001 s
  Finished transformation to standard eigenproblem
  | Time :     0.001 s
  Starting LAPACK eigensolver
  Finished solving standard eigenproblem
  | Time :     0.003 s
  Finished back-transformation of eigenvectors
  | Time :     0.000 s

  Obtaining occupation numbers and chemical potential using ELSI.
  | Chemical potential (Fermi level):    -4.86861886eV
  Writing Kohn-Sham eigenvalues.
  K-point:       1 at    0.000000    0.000000    0.000000 (in units of recip. lattice)

  State    Occupation    Eigenvalue [Ha]    Eigenvalue [eV]
      1       2.00000         -14.272527         -388.37521
      2       2.00000         -14.272527         -388.37521
      3       2.00000          -6.709485         -182.57438
      4       2.00000          -6.709484         -182.57435
      5       2.00000          -1.057838          -28.78525
      6       2.00000          -1.055907          -28.73270
      7       2.00000          -0.573779          -15.61333
      8       2.00000          -0.550348          -14.97572
      9       2.00000          -0.485137          -13.20125
     10       2.00000          -0.485134          -13.20118
     11       2.00000          -0.484973          -13.19679
     12       2.00000          -0.484970          -13.19672
     13       0.00000          -0.140839           -3.83242
     14       0.00000          -0.033790           -0.91949
     15       0.00000           0.025907            0.70496
     16       0.00000           0.031372            0.85368
     17       0.00000           0.031375            0.85376
     18       0.00000           0.032181            0.87569
     19       0.00000           0.032186            0.87583
     20       0.00000           0.071717            1.95152
     21       0.00000           0.133295            3.62714
     22       0.00000           0.187306            5.09685
     23       0.00000           0.324219            8.82245
     24       0.00000           0.553263           15.05505

  What follows are estimated values for band gap, HOMO, LUMO, etc.
  | They are estimated on a discrete k-point grid and not necessarily exact.
  | For converged numbers, create a DOS and/or band structure plot on a denser k-grid.

  Highest occupied state (VBM) at    -11.00910921 eV (relative to internal zero)
  | Occupation number:      2.00000000
  | K-point:    1468 at    0.333333    0.333333    0.500000 (in units of recip. lattice)

  Lowest unoccupied state (CBM) at    -4.82805695 eV (relative to internal zero)
  | Occupation number:      0.00000001
  | K-point:     119 at    0.000000    0.500000    0.000000 (in units of recip. lattice)

  ESTIMATED overall HOMO-LUMO gap:      6.18105226 eV between HOMO at k-point 1468 and LUMO at k-point 119
  | This appears to be an indirect band gap.
  | Smallest direct gap :      6.26446767 eV for k_point 1468 at    0.000000    0.500000    0.000000 (in units of recip. lattice)
  The gap value is above 0.2 eV. Unless you are using a very sparse k-point grid,
  this system is most likely an insulator or a semiconductor.

  Total energy components:
  | Sum of eigenvalues            :         -94.67474054 Ha       -2576.23076728 eV
  | XC energy correction          :         -21.73371093 Ha        -591.40436470 eV
  | XC potential correction       :          27.92438254 Ha         759.86111014 eV
  | Free-atom electrostatic energy:         -70.84297324 Ha       -1927.73538389 eV
  | Hartree energy correction     :          -0.22942655 Ha          -6.24301420 eV
  | Entropy correction            :          -0.00000000 Ha          -0.00000000 eV
  | ---------------------------
  | Total energy                  :        -159.55646872 Ha       -4341.75241993 eV
  | Total energy, T -> 0          :        -159.55646872 Ha       -4341.75241993 eV  <-- do not rely on this value for anything but (periodic) metals
  | Electronic free energy        :        -159.55646872 Ha       -4341.75241993 eV

  Derived energy quantities:
  | Kinetic energy                :         158.81005232 Ha        4321.44139621 eV
  | Electrostatic energy          :        -296.63281012 Ha       -8071.78945144 eV
  | Energy correction for multipole
  | error in Hartree potential    :          -0.00124302 Ha          -0.03382436 eV
  | Sum of eigenvalues per atom                           :        -644.05769182 eV
  | Total energy (T->0) per atom                          :       -1085.43810498 eV  <-- do not rely on this value for anything but (periodic) metals
  | Electronic free energy per atom                       :       -1085.43810498 eV

  Self-consistency convergence accuracy:
  | Change of charge density      :  0.4167E+00
  | Change of sum of eigenvalues  :  0.6635E+01 eV
  | Change of total energy        :  0.5786E+00 eV

  End self-consistency iteration #     1       :  max(cpu_time)    wall_clock(cpu1)
  | Time for this iteration                    :        3.272 s           3.268 s
  | Charge density update                      :        1.784 s           1.781 s
  | Density mixing & preconditioning           :        0.060 s           0.057 s
  | Hartree multipole update                   :        0.004 s           0.002 s
  | Hartree multipole summation                :        0.108 s           0.103 s
  | Integration                                :        0.820 s           0.820 s
  | Solution of K.-S. eqns.                    :        0.508 s           0.503 s
  | Total energy evaluation                    :        0.004 s           0.002 s

  Partial memory accounting:
  | Current value for overall tracked memory usage on task 0  :          18.575 MB
  | Peak value for overall tracked memory usage on task 0     :          64.811 MB after allocating gradient_basis_wave
  | Largest tracked array allocation on task 0 so far         :          35.516 MB  when allocating hamiltonian_shell
  Note:  These values currently only include a subset of arrays which are explicitly tracked.
  The "true" memory usage will be greater.
------------------------------------------------------------

------------------------------------------------------------
          Begin self-consistency iteration #    2

  Date     :  20191128, Time     :  230321.685
------------------------------------------------------------
  Evaluating new KS density using the density matrix
  Evaluating density matrix
  Time summed over all CPUs for getting density from density matrix: real work      118.153 s, elapsed      124.317 s
  Integration grid: deviation in total charge (<rho> - N_e) =   6.593837E-12
  Pulay mixing of updated and previous charge densities.

  Evaluating partitioned Hartree potential by multipole expansion.
  | Analytical far-field extrapolation by fixed multipoles:
  | Hartree multipole sum: apparent total charge =   0.459965E-02
  Summing up the Hartree potential.
  Time summed over all CPUs for potential: real work        8.053 s, elapsed        8.575 s
  | RMS charge density error from multipole expansion :   0.587348E-02
  | Average real-space part of the electrostatic potential :      0.26975113 eV

  Integrating Hamiltonian matrix: batch-based integration.
  Time summed over all CPUs for integration: real work       60.305 s, elapsed       63.546 s

  Updating Kohn-Sham eigenvalues and eigenvectors using ELSI and the ELPA eigensolver.
  Finished Cholesky decomposition
  | Time :     0.001 s
  Finished transformation to standard eigenproblem
  | Time :     0.001 s
  Starting LAPACK eigensolver
  Finished solving standard eigenproblem
  | Time :     0.003 s
  Finished back-transformation of eigenvectors
  | Time :     0.000 s

  Obtaining occupation numbers and chemical potential using ELSI.
  | Chemical potential (Fermi level):    -4.37362088eV
  What follows are estimated values for band gap, HOMO, LUMO, etc.
  | They are estimated on a discrete k-point grid and not necessarily exact.
  | For converged numbers, create a DOS and/or band structure plot on a denser k-grid.

  Highest occupied state (VBM) at     -8.66711351 eV (relative to internal zero)
  | Occupation number:      2.00000000
  | K-point:    1468 at    0.333333    0.333333    0.500000 (in units of recip. lattice)

  Lowest unoccupied state (CBM) at    -4.33334099 eV (relative to internal zero)
  | Occupation number:      0.00000001
  | K-point:     119 at    0.000000    0.500000    0.000000 (in units of recip. lattice)

  ESTIMATED overall HOMO-LUMO gap:      4.33377252 eV between HOMO at k-point 1468 and LUMO at k-point 119
  | This appears to be an indirect band gap.
  | Smallest direct gap :      4.39408884 eV for k_point 1468 at    0.000000    0.500000    0.000000 (in units of recip. lattice)
  The gap value is above 0.2 eV. Unless you are using a very sparse k-point grid,
  this system is most likely an insulator or a semiconductor.

  Checking to see if s.c.f. parameters should be adjusted.
  The system likely has a gap. Increased the default Pulay mixing parameter (charge_mix_param). Value:   0.200000 .
  Kept the default occupation width. Value:   0.010000 eV.

  Total energy components:
  | Sum of eigenvalues            :         -92.43234376 Ha       -2515.21204637 eV
  | XC energy correction          :         -21.96610107 Ha        -597.72802225 eV
  | XC potential correction       :          28.22431231 Ha         768.02261465 eV
  | Free-atom electrostatic energy:         -70.84297324 Ha       -1927.73538389 eV
  | Hartree energy correction     :          -2.43748027 Ha         -66.32721278 eV
  | Entropy correction            :          -0.00000000 Ha          -0.00000000 eV
  | ---------------------------
  | Total energy                  :        -159.45458603 Ha       -4338.98005063 eV
  | Total energy, T -> 0          :        -159.45458603 Ha       -4338.98005063 eV  <-- do not rely on this value for anything but (periodic) metals
  | Electronic free energy        :        -159.45458603 Ha       -4338.98005063 eV

  Derived energy quantities:
  | Kinetic energy                :         159.74486788 Ha        4346.87902179 eV
  | Electrostatic energy          :        -297.23335283 Ha       -8088.13105018 eV
  | Energy correction for multipole
  | error in Hartree potential    :          -0.01323895 Ha          -0.36025023 eV
  | Sum of eigenvalues per atom                           :        -628.80301159 eV
  | Total energy (T->0) per atom                          :       -1084.74501266 eV  <-- do not rely on this value for anything but (periodic) metals
  | Electronic free energy per atom                       :       -1084.74501266 eV

  Self-consistency convergence accuracy:
  | Change of charge density      :  0.3812E+00
  | Change of sum of eigenvalues  :  0.6102E+02 eV
  | Change of total energy        :  0.2772E+01 eV

  End self-consistency iteration #     2       :  max(cpu_time)    wall_clock(cpu1)
  | Time for this iteration                    :        3.272 s           3.266 s
  | Charge density update                      :        1.784 s           1.779 s
  | Density mixing & preconditioning           :        0.052 s           0.053 s
  | Hartree multipole update                   :        0.004 s           0.002 s
  | Hartree multipole summation                :        0.120 s           0.115 s
  | Integration                                :        0.820 s           0.817 s
  | Solution of K.-S. eqns.                    :        0.500 s           0.497 s
  | Total energy evaluation                    :        0.004 s           0.002 s

  Partial memory accounting:
  | Current value for overall tracked memory usage on task 0  :          18.576 MB
  | Peak value for overall tracked memory usage on task 0     :          64.811 MB after allocating gradient_basis_wave
  | Largest tracked array allocation on task 0 so far         :          35.516 MB  when allocating hamiltonian_shell
  Note:  These values currently only include a subset of arrays which are explicitly tracked.
  The "true" memory usage will be greater.
------------------------------------------------------------

------------------------------------------------------------
          Begin self-consistency iteration #    3

  Date     :  20191128, Time     :  230324.951
------------------------------------------------------------
  Evaluating new KS density using the density matrix
  Evaluating density matrix
  Time summed over all CPUs for getting density from density matrix: real work      118.151 s, elapsed      124.245 s
  Integration grid: deviation in total charge (<rho> - N_e) =   6.579626E-12
  Pulay mixing of updated and previous charge densities.

  Evaluating partitioned Hartree potential by multipole expansion.
  | Analytical far-field extrapolation by fixed multipoles:
  | Hartree multipole sum: apparent total charge =   0.546263E-02
  Summing up the Hartree potential.
  Time summed over all CPUs for potential: real work        8.141 s, elapsed        8.652 s
  | RMS charge density error from multipole expansion :   0.848429E-02
  | Average real-space part of the electrostatic potential :      0.32922848 eV

  Integrating Hamiltonian matrix: batch-based integration.
  Time summed over all CPUs for integration: real work       60.291 s, elapsed       63.598 s

  Updating Kohn-Sham eigenvalues and eigenvectors using ELSI and the ELPA eigensolver.
  Finished Cholesky decomposition
  | Time :     0.001 s
  Finished transformation to standard eigenproblem
  | Time :     0.001 s
  Starting LAPACK eigensolver
  Finished solving standard eigenproblem
  | Time :     0.003 s
  Finished back-transformation of eigenvectors
  | Time :     0.000 s

  Obtaining occupation numbers and chemical potential using ELSI.
  | Chemical potential (Fermi level):    -4.12521889eV
  What follows are estimated values for band gap, HOMO, LUMO, etc.
  | They are estimated on a discrete k-point grid and not necessarily exact.
  | For converged numbers, create a DOS and/or band structure plot on a denser k-grid.

  Highest occupied state (VBM) at     -8.58972278 eV (relative to internal zero)
  | Occupation number:      2.00000000
  | K-point:    1468 at    0.333333    0.333333    0.500000 (in units of recip. lattice)

  Lowest unoccupied state (CBM) at    -4.08494598 eV (relative to internal zero)
  | Occupation number:      0.00000001
  | K-point:     119 at    0.000000    0.500000    0.000000 (in units of recip. lattice)

  ESTIMATED overall HOMO-LUMO gap:      4.50477680 eV between HOMO at k-point 1468 and LUMO at k-point 119
  | This appears to be an indirect band gap.
  | Smallest direct gap :      4.62836804 eV for k_point 1468 at    0.000000    0.500000    0.000000 (in units of recip. lattice)
  The gap value is above 0.2 eV. Unless you are using a very sparse k-point grid,
  this system is most likely an insulator or a semiconductor.

  Total energy components:
  | Sum of eigenvalues            :         -92.18394208 Ha       -2508.45269262 eV
  | XC energy correction          :         -21.97191795 Ha        -597.88630754 eV
  | XC potential correction       :          28.23295676 Ha         768.25784209 eV
  | Free-atom electrostatic energy:         -70.84297324 Ha       -1927.73538389 eV
  | Hartree energy correction     :          -2.68341382 Ha         -73.01940524 eV
  | Entropy correction            :          -0.00000000 Ha          -0.00000000 eV
  | ---------------------------
  | Total energy                  :        -159.44929032 Ha       -4338.83594721 eV
  | Total energy, T -> 0          :        -159.44929032 Ha       -4338.83594721 eV  <-- do not rely on this value for anything but (periodic) metals
  | Electronic free energy        :        -159.44929032 Ha       -4338.83594721 eV

  Derived energy quantities:
  | Kinetic energy                :         159.34291151 Ha        4335.94123243 eV
  | Electrostatic energy          :        -296.82028388 Ha       -8076.89087210 eV
  | Energy correction for multipole
  | error in Hartree potential    :          -0.01879295 Ha          -0.51138221 eV
  | Sum of eigenvalues per atom                           :        -627.11317316 eV
  | Total energy (T->0) per atom                          :       -1084.70898680 eV  <-- do not rely on this value for anything but (periodic) metals
  | Electronic free energy per atom                       :       -1084.70898680 eV

  Self-consistency convergence accuracy:
  | Change of charge density      :  0.1365E+00
  | Change of sum of eigenvalues  :  0.6759E+01 eV
  | Change of total energy        :  0.1441E+00 eV

  End self-consistency iteration #     3       :  max(cpu_time)    wall_clock(cpu1)
  | Time for this iteration                    :        3.272 s           3.267 s
  | Charge density update                      :        1.784 s           1.778 s
  | Density mixing & preconditioning           :        0.052 s           0.053 s
  | Hartree multipole update                   :        0.004 s           0.002 s
  | Hartree multipole summation                :        0.120 s           0.116 s
  | Integration                                :        0.820 s           0.818 s
  | Solution of K.-S. eqns.                    :        0.500 s           0.497 s
  | Total energy evaluation                    :        0.004 s           0.002 s

  Partial memory accounting:
  | Current value for overall tracked memory usage on task 0  :          18.576 MB
  | Peak value for overall tracked memory usage on task 0     :          64.812 MB after allocating gradient_basis_wave
  | Largest tracked array allocation on task 0 so far         :          35.516 MB  when allocating hamiltonian_shell
  Note:  These values currently only include a subset of arrays which are explicitly tracked.
  The "true" memory usage will be greater.
------------------------------------------------------------

------------------------------------------------------------
          Begin self-consistency iteration #    4

  Date     :  20191128, Time     :  230328.218
------------------------------------------------------------
  Evaluating new KS density using the density matrix
  Evaluating density matrix
  Time summed over all CPUs for getting density from density matrix: real work      118.133 s, elapsed      124.243 s
  Integration grid: deviation in total charge (<rho> - N_e) =   6.622258E-12
  Pulay mixing of updated and previous charge densities.

  Evaluating partitioned Hartree potential by multipole expansion.
  | Analytical far-field extrapolation by fixed multipoles:
  | Hartree multipole sum: apparent total charge =   0.573509E-02
  Summing up the Hartree potential.
  Time summed over all CPUs for potential: real work        8.217 s, elapsed        8.745 s
  | RMS charge density error from multipole expansion :   0.107324E-01
  | Average real-space part of the electrostatic potential :      0.38365836 eV

  Integrating Hamiltonian matrix: batch-based integration.
  Time summed over all CPUs for integration: real work       60.291 s, elapsed       63.553 s

  Updating Kohn-Sham eigenvalues and eigenvectors using ELSI and the ELPA eigensolver.
  Finished Cholesky decomposition
  | Time :     0.000 s
  Finished transformation to standard eigenproblem
  | Time :     0.001 s
  Starting LAPACK eigensolver
  Finished solving standard eigenproblem
  | Time :     0.003 s
  Finished back-transformation of eigenvectors
  | Time :     0.000 s

[...]
  |  99.337689      0.001      0.001      0.001      0.000     -0.000      0.000
  | --------------------------------------------------------------
  | Partitioned atomic C6 coefficients and polarizabilities (a.u.)
  | --------------------------------------------------------------
  | ATOM   1  B   70.491058         17.301394
  | ATOM   2  B   70.491058         17.301394
  | ATOM   3  N   13.255025          3.184991
  | ATOM   4  N   13.255025          3.184991
  | --------------------------------------------------------------
  | Computing MBD@rsSCS energy...
  | --------------------------------------------------------------

  Total energy components:
  | Sum of eigenvalues            :         -92.18537576 Ha       -2508.49170505 eV
  | XC energy correction          :         -22.01792601 Ha        -599.13825047 eV
  | XC potential correction       :          28.29438240 Ha         769.92931861 eV
  | Free-atom electrostatic energy:         -70.77423727 Ha       -1925.86498309 eV
  | Hartree energy correction     :          -2.76328112 Ha         -75.19270500 eV
  | Entropy correction            :          -0.00000000 Ha          -0.00000000 eV
  | ---------------------------
  | Total energy                  :        -159.46830252 Ha       -4339.35329550 eV
  | Total energy, T -> 0          :        -159.46830252 Ha       -4339.35329550 eV  <-- do not rely on this value for anything but (periodic) metals
  | Electronic free energy        :        -159.46830252 Ha       -4339.35329550 eV

  Derived energy quantities:
  | Kinetic energy                :         159.00320714 Ha        4326.69740610 eV
  | Electrostatic energy          :        -296.43171889 Ha       -8066.31748063 eV
  | Energy correction for multipole
  | error in Hartree potential    :          -0.02955813 Ha          -0.80431764 eV
  | Sum of eigenvalues per atom                           :        -627.12292626 eV
  | Total energy (T->0) per atom                          :       -1084.83832387 eV  <-- do not rely on this value for anything but (periodic) metals
  | Electronic free energy per atom                       :       -1084.83832387 eV

  atomic forces [eV/Ang]:
  -----------------------
  atom #    1
   Hellmann-Feynman              :  0.112740E-02 -0.433734E-02  0.263579E-03
   Ionic forces                  :  0.000000E+00  0.000000E+00  0.000000E+00
   Multipole                     :  0.154557E-04 -0.227301E-03 -0.319351E-04
   Pulay + GGA                   :  0.593730E-04  0.346394E-02 -0.155684E-03
   Van der Waals                 : -0.275931E-04  0.217682E-04  0.419054E-05
   ----------------------------------------------------------------
   Total forces(   1)            :  0.117464E-02 -0.107893E-02  0.801510E-04
  atom #    2
   Hellmann-Feynman              : -0.112740E-02  0.433734E-02 -0.263581E-03
   Ionic forces                  :  0.000000E+00  0.000000E+00  0.000000E+00
   Multipole                     : -0.154557E-04  0.227301E-03  0.319350E-04
   Pulay + GGA                   : -0.593736E-04 -0.346394E-02  0.155684E-03
   Van der Waals                 :  0.275931E-04 -0.217683E-04 -0.419055E-05
   ----------------------------------------------------------------
   Total forces(   2)            : -0.117464E-02  0.107894E-02 -0.801521E-04
  atom #    3
   Hellmann-Feynman              :  0.106179E-02 -0.446231E-02  0.901568E-04
   Ionic forces                  :  0.000000E+00  0.000000E+00  0.000000E+00
   Multipole                     : -0.195539E-04 -0.765856E-03 -0.604262E-04
   Pulay + GGA                   :  0.157400E-03  0.435566E-02 -0.100535E-03
   Van der Waals                 : -0.284479E-04  0.139027E-04  0.108242E-04
   ----------------------------------------------------------------
   Total forces(   3)            :  0.117119E-02 -0.858599E-03 -0.599801E-04
  atom #    4
   Hellmann-Feynman              : -0.106179E-02  0.446230E-02 -0.901572E-04
   Ionic forces                  :  0.000000E+00  0.000000E+00  0.000000E+00
   Multipole                     :  0.195539E-04  0.765856E-03  0.604265E-04
   Pulay + GGA                   : -0.157400E-03 -0.435567E-02  0.100532E-03
   Van der Waals                 :  0.284479E-04 -0.139026E-04 -0.108242E-04
   ----------------------------------------------------------------
   Total forces(   4)            : -0.117119E-02  0.858591E-03  0.599773E-04


  Analytical stress tensor components [eV]         xx                  yy                  zz                  xy                  xz                  yz
  -----------------------------------------------------------------------------------------------------------------------------------------------------------
    Nuclear Hellmann-Feynman      :    -0.7435743012E+02   -0.7435734915E+02   -0.3258661092E+02   -0.3569587106E-02   -0.2149598197E-08    0.1293874535E-05
    Multipole Hellmann-Feynman    :    -0.1478368459E+03   -0.1478510862E+03   -0.2464828387E+02   -0.6170895270E-02    0.2463650021E-07   -0.1477533019E-05
    On-site Multipole corrections :    -0.6071891138E-02   -0.5978619944E-02   -0.5624847487E-02   -0.4397958513E-07    0.3013819991E-10    0.1119000004E-07
    Strain deriv. of the orbitals :     0.2215883965E+03    0.2215998342E+03    0.5668550360E+02    0.9089688064E-02   -0.2867672115E-07    0.3923209304E-06
    vdW correction   :     0.6109735650E+00    0.6109929345E+00    0.5542080204E+00    0.4527706315E-04   -0.1610241104E-08   -0.2846210011E-07
  -----------------------------------------------------------------------------------------------------------------------------------------------------------
  Sum of all contributions        :    -0.9778346367E-03   -0.3586786355E-02   -0.8080082328E-03   -0.6055612286E-03   -0.7769922039E-08    0.1913903457E-06

  +-------------------------------------------------------------------+
  |              Analytical stress tensor - Symmetrized               |
  |                  Cartesian components [eV/A**3]                   |
  +-------------------------------------------------------------------+
  |                x                y                z                |
  |                                                                   |
  |  x        -0.00002658      -0.00001646      -0.00000000           |
  |  y        -0.00001646      -0.00009750       0.00000001           |
  |  z        -0.00000000       0.00000001      -0.00002196           |
  |                                                                   |
  |  Pressure:       0.00004868   [eV/A**3]                           |
  |                                                                   |
  +-------------------------------------------------------------------+

 * Warning: Stress tensor is anisotropic. Be aware that pressure is an isotropic quantity.

  Timings for VdW correction (Tkatchenko-Scheffler 2009 or later):
  | CPU time:        8.160 s, Wall clock time:        8.151 s.
  Removing unitary transformations (pure translations, rotations) from forces on atoms.
  Atomic forces before filtering:
  | Net force on center of mass :  -0.362651E-09 -0.266274E-08 -0.396481E-08 eV/A
  Removing unitary transformations (rotations) from forces on lattice.
  Lattice forces before filtering:
  | Net torque relative to origin:  -0.134860E-19 -0.417798E-20  0.295026E-17 eV
  Atomic forces after filtering:
  | Net force on center of mass :  -0.348449E-18  0.000000E+00  0.000000E+00 eV/A
  Lattice forces after filtering:
  | Net torque relative to origin:  -0.134860E-19 -0.417798E-20  0.295026E-17 eV

  Energy and forces in a compact form:
  | Total energy uncorrected      :         -0.433935329549636E+04 eV
  | Total energy corrected        :         -0.433935329549636E+04 eV  <-- do not rely on this value for anything but (periodic) metals
  | Electronic free energy        :         -0.433935329549636E+04 eV
  Total atomic forces (unitary forces cleaned) [eV/Ang]:
  |   1          0.117463543345018E-02         -0.107893050527968E-02          0.801519898049726E-04
  |   2         -0.117463669977872E-02          0.107893741309181E-02         -0.801511164267271E-04
  |   3          0.117118703862813E-02         -0.858598264488878E-03         -0.599791386350348E-04
  |   4         -0.117118577229959E-02          0.858591356676748E-03          0.599782652567894E-04

  ------------------------------------ 
  Start decomposition of the XC Energy 
  ------------------------------------ 
  X and C from original XC functional choice 
  Hartree-Fock Energy :          0.000000000 Ha              0.000000000 eV
  X Energy            :        -21.192498770 Ha           -576.677232549 eV
  C Energy            :         -0.825427237 Ha            -22.461017924 eV
  Total XC Energy     :        -22.017926007 Ha           -599.138250473 eV
  ------------------------------------ 
  LDA X and C from self-consistent density 
  X Energy LDA        :        -19.230219957 Ha           -523.280909274 eV
  C Energy LDA        :         -1.603634073 Ha            -43.637103362 eV
  ------------------------------------ 
  End decomposition of the XC Energy 
  ------------------------------------ 

------------------------------------------------------------
  Relaxation / MD: End force evaluation.       :  max(cpu_time)    wall_clock(cpu1)
  | Time for this force evaluation             :       99.444 s          99.730 s

------------------------------------------------------------
  Geometry optimization: Attempting to predict improved coordinates.

  +-------------------------------------------------------------------+
  | Generalized derivatives on lattice vectors [eV/A]                 |
  +-------------------------------------------------------------------+
  |lattice_vector      -0.00052980      -0.00106818       0.00000004  |
  |lattice_vector      -0.00027908      -0.00165299       0.00000009  |
  |lattice_vector      -0.00000000       0.00000003      -0.00011941  |
  +-------------------------------------------------------------------+
  | Forces on lattice vectors cleaned from atomic contributions [eV/A]|
  +-------------------------------------------------------------------+
  |lattice_vector      -0.00103407       0.00236000      -0.00001358  |
  |lattice_vector       0.00184292       0.00036162       0.00001318  |
  |lattice_vector      -0.00000172       0.00011013       0.00004935  |
  +-------------------------------------------------------------------+
  | Projected forces for shape relaxation  [eV/A]                     |
  +-------------------------------------------------------------------+
  |lattice_vector      -0.00103407       0.00000000       0.00000000  |
  |lattice_vector       0.00030415      -0.00052680      -0.00000000  |
  |lattice_vector       0.00000000      -0.00000000       0.00004935  |
  +-------------------------------------------------------------------+
  Removing unitary transformations (pure translations, rotations) from forces on atoms.
  Atomic forces before filtering:
  | Net force on center of mass :  -0.348449E-18  0.000000E+00  0.000000E+00 eV/A
  Removing unitary transformations (rotations) from forces on lattice.
  Lattice forces before filtering:
  | Net torque relative to origin:  -0.204716E-34 -0.153537E-34  0.921958E-19 eV
  Atomic forces after filtering:
  | Net force on center of mass :  -0.348449E-18  0.000000E+00  0.000000E+00 eV/A
  Lattice forces after filtering:
  | Net torque relative to origin:  -0.204716E-34 -0.153537E-34  0.921958E-19 eV
  || Forces on lattice vectors || =   0.103407E-02 eV/A.
  Net remaining forces (excluding translations, rotations) in present geometry:
  Maximum force component is  0.117464E-02 eV/A.
  Present geometry is converged.

------------------------------------------------------------
  Final atomic structure:
                         x [A]             y [A]             z [A]
  lattice_vector         2.50555551       -0.00000000       -0.00000000
  lattice_vector        -1.25277592        2.16987154        0.00000000
  lattice_vector         0.00000000       -0.00000000        6.76670210

            atom        -0.00003714        1.44797384        1.69154650  B
            atom         1.25281673        0.72189770        5.07515560  B
            atom         0.00001018        1.44521886        5.07515384  N
            atom         1.25276942        0.72465268        1.69154826  N

  Fractional coordinates:
                         L1                L2                L3
       atom_frac         0.33363896        0.66730855        0.24998093  B
       atom_frac         0.66636104        0.33269145        0.75001907  B
       atom_frac         0.33302302        0.66603890        0.75001881  N
       atom_frac         0.66697698        0.33396110        0.24998119  N
------------------------------------------------------------

------------------------------------------------------------------------------
  Final output of selected total energy values:

  The following output summarizes some interesting total energy values
  at the end of a run (AFTER all relaxation, molecular dynamics, etc.).

  | Total energy of the DFT / Hartree-Fock s.c.f. calculation      :          -4339.353295496 eV
  | Final zero-broadening corrected energy (caution - metals only) :          -4339.353295496 eV
  | For reference only, the value of 1 Hartree used in FHI-aims is :             27.211384500 eV

  Before relying on these values, please be sure to understand exactly which
  total energy value is referred to by a given number. Different objects may
  all carry the same name 'total energy'. Definitions:

  Total energy of the DFT / Hartree-Fock s.c.f. calculation:
  | Note that this energy does not include ANY quantities calculated after the
  | s.c.f. cycle, in particular not ANY RPA, MP2, etc. many-body perturbation terms.

  Final zero-broadening corrected energy:
  | For metallic systems only, a broadening of the occupation numbers at the Fermi
  | level can be extrapolated back to zero broadening by an electron-gas inspired
  | formula. For all systems that are not real metals, this value can be
  | meaningless and should be avoided.

------------------------------------------------------------------------------
  Methods described in the following list of references were used in this FHI-aims run.
  If you publish the results, please make sure to cite these reference if they apply.
  FHI-aims is an academic code, and for our developers (often, Ph.D. students
  and postdocs), scientific credit in the community is essential.
  Thank you for helping us!

  For any use of FHI-aims, please cite:

    Volker Blum, Ralf Gehrke, Felix Hanke, Paula Havu, Ville Havu,
    Xinguo Ren, Karsten Reuter, and Matthias Scheffler
    'Ab initio molecular simulations with numeric atom-centered orbitals'
    Computer Physics Communications 180, 2175-2196 (2009)
    http://dx.doi.org/10.1016/j.cpc.2009.06.022


  For the analytical stress tensor used in your run, please cite:

    Franz Knuth, Christian Carbogno, Viktor Atalla, Volker Blum, Matthias Scheffler
    'All-electron formalism for total energy strain derivatives and
    stress tensor components for numeric atom-centered orbitals'
    Computer Physics Communications 190, 33-50 (2015).
    http://dx.doi.org/10.1016/j.cpc.2015.01.003


  The scalable eigensolver library ELPA was used in your run.
  ELPA is essential especially for large systems on hundreds or thousands of CPUs.
  For ELPA, please cite:

    Andreas Marek, Volker Blum, Rainer Johanni, Ville Havu, Bruno Lang,
    Thomas Auckenthaler, Alexander Heinecke, Hans-Joachim Bungartz, and Hermann Lederer,
    'The ELPA Library - Scalable Parallel Eigenvalue Solutions
    for Electronic Structure Theory and Computational Science'
    The Journal of Physics: Condensed Matter 26, 213201 (2014).
    http://dx.doi.org/10.1088/0953-8984/26/21/213201


  The ELSI infrastructure was used in your run to solve the Kohn-Sham electronic structure.
  Please check out http://elsi-interchange.org to learn more.
  If scalability is important for your project, please acknowledge ELSI by citing:

    V. W-z. Yu, F. Corsetti, A. Garcia, W. P. Huhn, M. Jacquelin, W. Jia,
    B. Lange, L. Lin, J. Lu, W. Mi, A. Seifitokaldani, A. Vazquez-Mayagoitia,
    C. Yang, H. Yang, and V. Blum
    'ELSI: A unified software interface for Kohn-Sham electronic structure solvers'
    Computer Physics Communications 222, 267-285 (2018).
    http://dx.doi.org/10.1016/j.cpc.2017.09.007


  For the real-space grid partitioning and parallelization used in this calculation, please cite:

    Ville Havu, Volker Blum, Paula Havu, and Matthias Scheffler,
    'Efficient O(N) integration for all-electron electronic structure calculation'
    'using numerically tabulated basis functions'
    Journal of Computational Physics 228, 8367-8379 (2009).
    http://dx.doi.org/10.1016/j.jcp.2009.08.008

  Of course, there are many other important community references, e.g., those cited in the
  above references. Our list is limited to references that describe implementations in the
  FHI-aims code. The reason is purely practical (length of this list) - please credit others as well.

------------------------------------------------------------
          Leaving FHI-aims.
          Date     :  20191128, Time     :  233111.169

          Computational steps:
          | Number of self-consistency cycles          :          188
          | Number of SCF (re)initializations          :           18
          | Number of relaxation steps                 :           17

          Detailed time accounting                     :  max(cpu_time)    wall_clock(cpu1)
          | Total time                                 :     1677.012 s        1675.801 s
          | Preparation time                           :        0.172 s           0.169 s
          | Boundary condition initalization           :        3.700 s           3.651 s
          | Grid partitioning                          :        1.272 s           1.259 s
          | Preloading free-atom quantities on grid    :        4.040 s           4.017 s
          | Free-atom superposition energy             :        0.300 s           0.288 s
          | Total time for integrations                :      190.080 s         189.570 s
          | Total time for solution of K.-S. equations :      100.100 s          99.813 s
          | Total time for EV reorthonormalization     :        2.500 s           2.406 s
          | Total time for density & force components  :     1185.108 s        1183.693 s
          | Total time for mixing & preconditioning    :        7.444 s           7.140 s
          | Total time for Hartree multipole update    :        0.756 s           0.313 s
          | Total time for Hartree multipole sum       :       36.228 s          35.794 s
          | Total time for total energy evaluation     :        0.764 s           0.348 s
          | Total time for scaled ZORA corrections     :        0.000 s           0.000 s
          | Total time for vdW correction              :      145.952 s         145.794 s

          Partial memory accounting:
          | Residual value for overall tracked memory usage across tasks :           0.000 MB (should be 0.000 MB)
          | Peak values for overall tracked memory usage (after allocating wave_pulay):
          |   Minimum:      108.419 MB (on task 27)
          |   Maximum:      112.973 MB (on task 60)
          |   Average:      111.238 MB
          | Largest tracked array allocation (density_matrix_con):
          |   Minimum:       44.180 MB (on task 27)
          |   Maximum:       47.395 MB (on task 61)
          |   Average:       45.863 MB
          Note:  These values currently only include a subset of arrays which are explicitly tracked.
          The "true" memory usage will be greater.

          Have a nice day.
------------------------------------------------------------
