  MPI-parallelism will be employed.
------------------------------------------------------------
          Invoking FHI-aims ...
          Version 171221_1
          Compiled on 2018/11/06 at 11:18:49 on host headnode.

          When using FHI-aims, please cite the following reference:

          Volker Blum, Ralf Gehrke, Felix Hanke, Paula Havu,
          Ville Havu, Xinguo Ren, Karsten Reuter, and Matthias Scheffler,
          'Ab Initio Molecular Simulations with Numeric Atom-Centered Orbitals',
          Computer Physics Communications 180, 2175-2196 (2009)

          For any questions about FHI-aims, please visit the aimsclub website
          with its forums and wiki. Contributions to both the forums and the
          wiki are warmly encouraged - they are for you, and everyone is welcome there.

------------------------------------------------------------



  Date     :  20191127, Time     :  201621.685
  Time zero on CPU 1             :   0.428000000000000E+00  s.
  Internal wall clock time zero  :           344117781.685  s.

  FHI-aims created a unique identifier for this run for later identification
  aims_uuid : 359155A3-BBFB-4A76-A171-F2B6B0C5272E

  Using       80 parallel tasks.
  Task        0 on host t017 reporting.
  Task        1 on host t017 reporting.
  Task        2 on host t017 reporting.
  Task        3 on host t017 reporting.
  Task        4 on host t017 reporting.
  Task        5 on host t017 reporting.
  Task        6 on host t017 reporting.
  Task        7 on host t017 reporting.
  Task        8 on host t017 reporting.
  Task        9 on host t017 reporting.
  Task       10 on host t017 reporting.
  Task       11 on host t017 reporting.
  Task       12 on host t017 reporting.
  Task       13 on host t017 reporting.
  Task       14 on host t017 reporting.
  Task       15 on host t017 reporting.
  Task       16 on host t017 reporting.
  Task       17 on host t017 reporting.
  Task       18 on host t017 reporting.
  Task       19 on host t017 reporting.
  Task       20 on host t011 reporting.
  Task       21 on host t011 reporting.
  Task       22 on host t011 reporting.
  Task       23 on host t011 reporting.
  Task       24 on host t011 reporting.
  Task       25 on host t011 reporting.
  Task       26 on host t011 reporting.
  Task       27 on host t011 reporting.
  Task       28 on host t011 reporting.
  Task       29 on host t011 reporting.
  Task       30 on host t011 reporting.
  Task       31 on host t011 reporting.
  Task       32 on host t011 reporting.
  Task       33 on host t011 reporting.
  Task       34 on host t011 reporting.
  Task       35 on host t011 reporting.
  Task       36 on host t011 reporting.
  Task       37 on host t011 reporting.
  Task       38 on host t011 reporting.
  Task       39 on host t011 reporting.
  Task       40 on host t010 reporting.
  Task       41 on host t010 reporting.
  Task       42 on host t010 reporting.
  Task       43 on host t010 reporting.
  Task       44 on host t010 reporting.
  Task       45 on host t010 reporting.
  Task       46 on host t010 reporting.
  Task       47 on host t010 reporting.
  Task       48 on host t010 reporting.
  Task       49 on host t010 reporting.
  Task       50 on host t010 reporting.
  Task       51 on host t010 reporting.
  Task       52 on host t010 reporting.
  Task       53 on host t010 reporting.
  Task       54 on host t010 reporting.
  Task       55 on host t010 reporting.
  Task       56 on host t010 reporting.
  Task       57 on host t010 reporting.
  Task       58 on host t010 reporting.
  Task       59 on host t010 reporting.
  Task       60 on host t009 reporting.
  Task       61 on host t009 reporting.
  Task       62 on host t009 reporting.
  Task       63 on host t009 reporting.
  Task       64 on host t009 reporting.
  Task       65 on host t009 reporting.
  Task       66 on host t009 reporting.
  Task       67 on host t009 reporting.
  Task       68 on host t009 reporting.
  Task       69 on host t009 reporting.
  Task       70 on host t009 reporting.
  Task       71 on host t009 reporting.
  Task       72 on host t009 reporting.
  Task       73 on host t009 reporting.
  Task       74 on host t009 reporting.
  Task       75 on host t009 reporting.
  Task       76 on host t009 reporting.
  Task       77 on host t009 reporting.
  Task       78 on host t009 reporting.
  Task       79 on host t009 reporting.

  Performing system and environment tests:
  | Environment variable OMP_NUM_THREADS correctly set to 1.
  | Stacksize not measured: no C compiler
  | Checking for scalapack...
  | Testing pdtran()...
  | All pdtran() tests passed.

  Obtaining array dimensions for all initial allocations:
  
  -----------------------------------------------------------------------
  Parsing control.in (first pass over file, find array dimensions only).
  The contents of control.in will be repeated verbatim below
  unless switched off by setting 'verbatim_writeout .false.' .
  in the first line of control.in .
  -----------------------------------------------------------------------
  
  #===============================================================================
  # FHI-aims file: ./control.in
  # Created using the Atomic Simulation Environment (ASE)
  # Wed Nov 27 20:14:29 2019
  #
  # List of parameters used to initialize the calculator:
  #     adjust_scf : once 2
  #     spin : none
  #     xc : pbe
  #     species_dir : /chemsoft/FHI-aims/stable/species_defaults/tight
  #     relativistic : ('atomic_zora', 'scalar')
  #     k_grid : [18, 18, 18]
  #===============================================================================
  adjust_scf                         once 2
  ### geometry optimisation section
  relax_geometry    bfgs    1E-2
  relax_unit_cell       fixed_angles
  spin                               none
  xc                                 pbe
  many_body_dispersion
  relativistic                       atomic_zora scalar
  k_grid                             18 18 18
  #===============================================================================
  
  ################################################################################
  #
  #  FHI-aims code project
  # Volker Blum, Fritz Haber Institute Berlin, 2009
  #
  #  Suggested "tight" defaults for C atom (to be pasted into control.in file)
  #
  ################################################################################
    species        C
  #     global species definitions
      nucleus             6
      mass                12.0107
  #
      l_hartree           6
  #
      cut_pot             4.0  2.0  1.0
      basis_dep_cutoff    1e-4
  #
      radial_base         34 7.0
      radial_multiplier   2
      angular_grids specified
        division   0.2187   50
        division   0.4416  110
        division   0.6335  194
        division   0.7727  302
        division   0.8772  434
  #      division   0.9334  590
  #      division   0.9924  770
  #      division   1.0230  974
  #      division   1.5020 1202
  #     outer_grid  974
        outer_grid  434
  ################################################################################
  #
  #  Definition of "minimal" basis
  #
  ################################################################################
  #     valence basis states
      valence      2  s   2.
      valence      2  p   2.
  #     ion occupancy
      ion_occ      2  s   1.
      ion_occ      2  p   1.
  ################################################################################
  #
  #  Suggested additional basis functions. For production calculations,
  #  uncomment them one after another (the most important basis functions are
  #  listed first).
  #
  #  Constructed for dimers: 1.0 A, 1.25 A, 1.5 A, 2.0 A, 3.0 A
  #
  ################################################################################
  #  "First tier" - improvements: -1214.57 meV to -155.61 meV
       hydro 2 p 1.7
       hydro 3 d 6
       hydro 2 s 4.9
  #  "Second tier" - improvements: -67.75 meV to -5.23 meV
       hydro 4 f 9.8
       hydro 3 p 5.2
       hydro 3 s 4.3
       hydro 5 g 14.4
       hydro 3 d 6.2
  #  "Third tier" - improvements: -2.43 meV to -0.60 meV
  #     hydro 2 p 5.6
  #     hydro 2 s 1.4
  #     hydro 3 d 4.9
  #     hydro 4 f 11.2
  #  "Fourth tier" - improvements: -0.39 meV to -0.18 meV
  #     hydro 2 p 2.1
  #     hydro 5 g 16.4
  #     hydro 4 d 13.2
  #     hydro 3 s 13.6
  #     hydro 4 f 17.6
  #  Further basis functions - improvements: -0.08 meV and below
  #     hydro 3 s 2
  #     hydro 3 p 6
  #     hydro 4 d 20
  ################################################################################
  #
  # For methods that use the localized form of the "resolution of identity" for
  # the two-electron Coulomb operator (RI_method LVL), particularly Hartree-Fock and
  # hybrid density functional calculations, the highest accuracy can be obtained by
  # uncommenting the line beginning with "for_aux"  below, thus adding an extra g radial
  # function to the construction of the product basis set for the expansion.
  # See Ref. New J. Phys. 17, 093020 (2015) for more information, particularly Figs. 1 and 6.
  #
  ################################################################################
  #
  # for_aux hydro 5 g 6.0
  
  -----------------------------------------------------------------------
  Completed first pass over input file control.in .
  -----------------------------------------------------------------------
  
  
  -----------------------------------------------------------------------
  Parsing geometry.in (first pass over file, find array dimensions only).
  The contents of geometry.in will be repeated verbatim below
  unless switched off by setting 'verbatim_writeout .false.' .
  in the first line of geometry.in .
  -----------------------------------------------------------------------
  
  #=======================================================
  # FHI-aims file: ./geometry.in
  # Created using the Atomic Simulation Environment (ASE)
  # Wed Nov 27 20:14:29 2019
  #=======================================================
  lattice_vector 2.4600000000000000 0.0000000000000000 0.0000000000000000
  lattice_vector -1.2300000000000000 2.1304224899999999 0.0000000000000000
  lattice_vector 0.0000000000000000 0.0000000000000000 6.7100000000000000
  atom 0.0000000000000000 0.0000000000000000 5.0324999999999998 C
  atom 0.0000000000000000 0.0000000000000000 1.6775000000000000 C
  atom 1.2300000000000000 0.7101408299999999 5.0324999999999998 C
  atom 0.0000000000000000 1.4202816599999999 1.6775000000000000 C
  
  -----------------------------------------------------------------------
  Completed first pass over input file geometry.in .
  -----------------------------------------------------------------------
  

  Basic array size parameters:
  | Number of species                 :        1
  | Number of atoms                   :        4
  | Number of lattice vectors         :        3
  | Max. basis fn. angular momentum   :        4
  | Max. atomic/ionic basis occupied n:        2
  | Max. number of basis fn. types    :        2
  | Max. radial fns per species/type  :        8
  | Max. logarithmic grid size        :     1277
  | Max. radial integration grid size :       69
  | Max. angular integration grid size:      434
  | Max. angular grid division number :        8
  | Radial grid for Hartree potential :     1277
  | Number of spin channels           :        1

------------------------------------------------------------
          Reading file control.in.
------------------------------------------------------------
  S.C.F. convergence parameters will be adjusted in iteration number     2 of the first full s.c.f. cycle only.
  Geometry relaxation: Modified BFGS - TRM (trust radius method, i.e., trusted quadratic extrapolation).
  Convergence accuracy for geometry relaxation: Maximum force <   0.100000E-01 eV/A.
  Spin treatment: No spin polarisation.
  XC: Using PBE gradient-corrected functionals.
  Using the default MBD implementation with analytical forces
  Scalar relativistic treatment of kinetic energy: on-site free-atom approximation to ZORA.
  Found k-point grid:        18        18        18
 
  Reading configuration options for species C                   .
  | Found nuclear charge :   6.0000
  | Found atomic mass :    12.0107000000000      amu
  | Found l_max for Hartree potential  :   6
  | Found cutoff potl. onset [A], width [A], scale factor :    4.00000    2.00000    1.00000
  | Threshold for basis-dependent cutoff potential is   0.100000E-03
  | Found data for basic radial integration grid :    34 points, outermost radius =    7.000 A
  | Found multiplier for basic radial grid :   2
  | Found angular grid specification: user-specified.
  | Specified grid contains     6 separate shells.
  | Check grid settings after all constraints further below.
  | Found free-atom valence shell :  2 s   2.000
  | Found free-atom valence shell :  2 p   2.000
  | No ionic wave fns used. Skipping ion_occ.
  | No ionic wave fns used. Skipping ion_occ.
  | Found hydrogenic basis function :  2 p   1.700
  | Found hydrogenic basis function :  3 d   6.000
  | Found hydrogenic basis function :  2 s   4.900
  | Found hydrogenic basis function :  4 f   9.800
  | Found hydrogenic basis function :  3 p   5.200
  | Found hydrogenic basis function :  3 s   4.300
  | Found hydrogenic basis function :  5 g  14.400
  | Found hydrogenic basis function :  3 d   6.200
  Species C                   : Missing cutoff potential type.
  Defaulting to exp(1/x)/(1-x)^2 type cutoff potential.
  Species C : No 'logarithmic' tag. Using default grid for free atom:
  | Default logarithmic grid data [bohr] : 0.1000E-03 0.1000E+03 0.1012E+01
  Species C : On-site basis accuracy parameter (for Gram-Schmidt orthonormalisation) not specified.
  Using default value basis_acc =  0.1000000E-03.
  Species C                   : Using default innermost maximum threshold i_radial=  2 for radial functions.
  Species C                   : Default cutoff onset for free atom density etc. : 0.40000000E+01 AA.
  Species C                   : Basic radial grid will be enhanced according to radial_multiplier =   2, to contain    69 grid points.
  | MBD: Using the same k-grid sampling as DFT
 
  Finished reading input file 'control.in'. Consistency checks are next.
 
  MPI_IN_PLACE appears to work with this MPI implementation.
  | Keeping use_mpi_in_place .true. (see manual).
  Target number of points in a grid batch is not set. Defaulting to  100
  Method for grid partitioning is not set. Defaulting to parallel hash+maxmin partitioning.
  Batch size limit is not set. Defaulting to    200
  By default, will store active basis functions for each batch.
  If in need of memory, prune_basis_once .false. can be used to disable this option.
  communication_type for Hartree potential was not specified.
  Defaulting to calc_hartree .
  Defaulting to Pulay charge density mixer.
  Pulay mixer: Number of relevant iterations not set.
  Defaulting to    8 iterations.
  Pulay mixer: Number of initial linear mixing iterations not set.
  Defaulting to    0 iterations.
  Work space size for distributed Hartree potential not set.
  Defaulting to   0.200000E+03 MB.
  Mixing parameter for charge density mixing has not been set.
  Using default: charge_mix_param =     0.0500.
  The mixing parameter will be adjusted in iteration number     2 of the first full s.c.f. cycle only.
  Algorithm-dependent basis array size parameters:
  | n_max_pulay                         :        8
 * Notice: The s.c.f. convergence criterion sc_accuracy_rho was not provided.
 * We used to stop in this case, and ask the user to provide reasonable
 * scf convergence criteria. However, this led some users to employ criteria
 * that led to extremely long run times, e.g., for simple relaxation.
 * We now preset a default value for sc_accuracy_rho if it is not set.
 * You may still wish to check if this setting is too tight or too loose for your needs.
 * Based on n_atoms, FHI-aims chose sc_accuracy_rho =  0.100000E-05 .
  Maximum number of self-consistency iterations not provided.
  Presetting  1000 iterations.
  Presetting      1001 iterations before the initial mixing cycle
  is restarted anyway using the sc_init_iter criterion / keyword.
  Presetting a factor      1.000 between actual scf density residual
  and density convergence criterion sc_accuracy_rho below which sc_init_iter
  takes no effect.
 * No s.c.f. convergence criteria (sc_accuracy_*) were provided in control.in.
 * The run will proceed with a reasonable default guess, but please check whether.
 * the s.c.f. cycles seem to take too much or too little time.
  No maximum number of relaxation steps, defaulting to     1000
  Default initial Hessian is Lindh matrix (thres = 15.00) plus  0.200000E+01 eV/A^2 times unity.
  No maximum energy tolerance for TRM/BFGS moves, defaulting to   0.200000E-03
  No harmonic length scale. Defaulting to   0.250000E-01 A.
  No trust radius initializer. Defaulting to   0.200000E+00 A.
  Unit cell relaxation: Restricted relaxation with fixed angles between lattice vectors.
  Unit cell relaxation: Analytical stress will be used.
  Analytical stress will be computed.
  Analytical stress calculation: Only the upper triangle is calculated.
                                 Final output is symmetrized.
  Analytical stress calculation: scf convergence accuracy of stress not set.
                                 Analytical stress self-consistency will not be checked explicitly.
                                 Be sure to set other criteria like sc_accuracy_rho tight enough.
  Force calculation: scf convergence accuracy of forces not set.
  Defaulting to 'sc_accuracy_forces not_checked'.
  Handling of forces: Unphysical translation and rotation will be removed from forces.
  No accuracy limit for integral partition fn. given. Defaulting to  0.1000E-14.
  No threshold value for u(r) in integrations given. Defaulting to  0.1000E-05.
  No occupation type (smearing scheme) given. Defaulting to Gaussian broadening, width =  0.1000E-01 eV.
  The width will be adjusted in iteration number     2 of the first full s.c.f. cycle only.
  S.C.F. convergence parameters will be adjusted in iteration number     2 of the first full s.c.f. cycle only.
  No accuracy for occupation numbers given. Defaulting to  0.1000E-12.
  No threshold value for occupation numbers given. Defaulting to  0.0000E+00.
  No accuracy for fermi level given. Defaulting to  0.1000E-19.
  Maximum # of iterations to find E_F not set. Defaulting to  200.
  Preferred method for the eigenvalue solver ('KS_method') not specified in 'control.in'.
  Defaulting to serial version, 'lapack_fast', since more k-points than CPUs available.
  Will not use alltoall communication since running on < 1024 CPUs.
  Threshold for basis singularities not set.
  Default threshold for basis singularities:  0.1000E-04
  partition_type (choice of integration weights) for integrals was not specified.
  | Using a version of the partition function of Stratmann and coworkers ('stratmann_smoother').
  | At each grid point, the set of atoms used to build the partition table is smoothly restricted to
  | only those atoms whose free-atom density would be non-zero at that grid point.
  Partitioning for Hartree potential was not defined. Using partition_type for integrals.
  | Adjusted default value of keyword multip_moments_threshold to:       0.10000000E-11
  | This value may affect high angular momentum components of the Hartree potential in periodic systems.
  Angular momentum expansion for Kerker preconditioner not set explicitly.
  | Using default value of   0
  No explicit requirement for turning off preconditioner.
  | By default, it will be turned off when the charge convergence reaches
  | sc_accuracy_rho  =   0.100000E-05
  No special mixing parameter while Kerker preconditioner is on.
  Using default: charge_mix_param =     0.0500.
  No q(lm)/r^(l+1) cutoff set for long-range Hartree potential.
  | Using default value of  0.100000E-09 .
  | Verify using the multipole_threshold keyword.
  Defaulting to new monopole extrapolation.
  Density update method: automatic selection selected.
  Using density matrix based charge density update.
  Using density matrix based charge density update.
  Using packed matrix style: index .
  Geometry relaxation: A file "geometry.in.next_step" is written out by default after each step.
  | This file contains the geometry of the current relaxation step as well as
  | the current Hessian matrix needed to restart the relaxation algorithm.
  | If you do not want part or all of this information, use the keywords
  | "write_restart_geometry" or "hessian_to_restart_geometry" to switch the output off.
  Defaulting to use time-reversal symmetry for k-point grid.
------------------------------------------------------------


------------------------------------------------------------
          Reading geometry description geometry.in.
------------------------------------------------------------
  Input structure read successfully.
  The structure contains        4 atoms,  and a total of         24.000 electrons.

  Input geometry:
  | Unit cell:
  |        2.46000000        0.00000000        0.00000000
  |       -1.23000000        2.13042249        0.00000000
  |        0.00000000        0.00000000        6.71000000
  | Atomic structure:
  |       Atom                x [A]            y [A]            z [A]
  |    1: Species C             0.00000000        0.00000000        5.03250000
  |    2: Species C             0.00000000        0.00000000        1.67750000
  |    3: Species C             1.23000000        0.71014083        5.03250000
  |    4: Species C             0.00000000        1.42028166        1.67750000

  Lattice parameters for 3D lattice (in Angstroms) :     2.460000    2.460000    6.710000
  Angle(s) between unit vectors (in degrees)      :    90.000000   90.000000  120.000000

  |

  | The smallest distance between any two atoms is         1.42028166 AA.
  |
  | The first atom of this pair is atom number                      4 .
  | The second atom of this pair is atom number                     2 .
  | Wigner-Seitz cell of the first atom image           0     1     0 .
  | (The Wigner-Seitz cell of the second atom is 0 0 0  by definition.)

  Quantities derived from the lattice vectors:
  | Reciprocal lattice vector 1:  2.554140  1.474634  0.000000
  | Reciprocal lattice vector 2: -0.000000  2.949267  0.000000
  | Reciprocal lattice vector 3:  0.000000  0.000000  0.936391
  | Unit cell volume                               :   0.351660E+02  A^3

  Range separation radius for Ewald summation (hartree_convergence_parameter):      2.82092147 bohr.

  Fractional coordinates:
                         L1                L2                L3
       atom_frac         0.00000000        0.00000000        0.75000000  C
       atom_frac         0.00000000        0.00000000        0.25000000  C
       atom_frac         0.66666667        0.33333333        0.75000000  C
       atom_frac         0.33333333        0.66666667        0.25000000  C

  Number of empty states per atom not set in control.in - providing a guess from actual geometry.
  | Total number of empty states used during s.c.f. cycle:       12
  If you use a very high smearing, use empty_states (per atom!) in control.in to increase this value.

  Structure-dependent array size parameters: 
  | Maximum number of distinct radial functions  :       11
  | Maximum number of basis functions            :      156
  | Number of Kohn-Sham states (occupied + empty):       24
------------------------------------------------------------

------------------------------------------------------------
          Preparing all fixed parts of the calculation.
------------------------------------------------------------
  Determining machine precision:
    2.225073858507201E-308
  Setting up grids for atomic and cluster calculations.

  Creating wave function, potential, and density for free atoms.

  Species: C

  List of occupied orbitals and eigenvalues:
    n    l              occ      energy [Ha]    energy [eV]
    1    0           2.0000       -10.049212      -273.4530
    2    0           2.0000        -0.504761       -13.7352
    2    1           2.0000        -0.193631        -5.2690

  Creating fixed part of basis set: Ionic, confined, hydrogenic.
 
  C                    hydrogenic:
 
  List of hydrogenic basis orbitals: 
    n    l      effective z      eigenvalue [eV]  inner max. [A]     outer max. [A]     outer radius [A]   
    2    1         1.700000        -9.8152           1.245706           1.245706           5.401630
    3    2         6.000000       -54.4226           0.792453           0.792453           4.178599
    2    0         4.900000       -81.6681           0.082559           0.562749           3.353238
    4    3         9.800000       -81.6681           0.863254           0.863254           4.028125
    3    1         5.200000       -40.8774           0.305389           1.215618           4.898362
    3    0         4.300000       -27.9508           0.091041           1.610311           5.401630
    5    4        14.400000      -112.8510           0.917666           0.917666           3.883070
    3    2         6.200000       -58.1113           0.763917           0.763917           4.077671
 

  Adding cutoff potential to free-atom effective potential.
  Creating atomic-like basis functions for current effective potential.

  Species C                   :

  List of atomic basis orbitals and eigenvalues:
    n    l      energy [Ha]    energy [eV]    outer radius [A]
    1    0       -10.049212      -273.4530       1.934409
    2    0        -0.504761       -13.7352       5.271162
    2    1        -0.193631        -5.2690       5.401630

  Assembling full basis from fixed parts.
  | Species C :   atomic orbital   1 s accepted.
  | Species C :    hydro orbital   2 s accepted.
  | Species C :   atomic orbital   2 s accepted.
  | Species C :    hydro orbital   3 s accepted.
  | Species C :    hydro orbital   3 p accepted.
  | Species C :   atomic orbital   2 p accepted.
  | Species C :    hydro orbital   2 p accepted.
  | Species C :    hydro orbital   3 d accepted.
  | Species C :    hydro orbital   3 d accepted.
  | Species C :    hydro orbital   4 f accepted.
  | Species C :    hydro orbital   5 g accepted.
 
  Basis size parameters after reduction:
  | Total number of radial functions:       11
  | Total number of basis functions :      156
 
  Per-task memory consumption for arrays in subroutine allocate_ext:
  |           3.600012MB.
  Testing on-site integration grid accuracy.
  |  Species  Function  <phi|h_atom|phi> (log., in eV)  <phi|h_atom|phi> (rad., in eV)
           1        1               -273.4529725981               -273.4529710451
           1        2                -10.7721037329                -10.7721022102
           1        3                 17.6044132585                 17.6044162052
           1        4                 53.7706460564                 53.7706913681
           1        5                 15.0973290351                 15.0973256011
           1        6                  3.8545134677                  3.8545724657
           1        7                 12.1156992586                 12.1182024423
           1        8                 29.4352039288                 29.4352041805
           1        9                 54.8741144697                 54.8740268719
           1       10                 59.3556032036                 59.3556031370
           1       11                 93.4551837140                 93.4551837996

  Preparing densities etc. for the partition functions (integrals / Hartree potential).

  Preparations completed.
  max(cpu_time)          :      0.152 s.
  Wall clock time (cpu1) :      0.148 s.
------------------------------------------------------------

------------------------------------------------------------
          Begin self-consistency loop: Initialization.

          Date     :  20191127, Time     :  201622.177
------------------------------------------------------------

  Initializing index lists of integration centers etc. from given atomic structure:
  Mapping all atomic coordinates to central unit cell.

  Initializing the k-points
          Using symmetry for reducing the k-points
  | k-points reduced from:     5832 to     2920
  | Number of k-points                             :      2920
  The eigenvectors in the calculations are COMPLEX.
  | K-points in task   0:        36
  | K-points in task   1:        37
  | K-points in task   2:        37
  | K-points in task   3:        37
  | K-points in task   4:        37
  | K-points in task   5:        37
  | K-points in task   6:        37
  | K-points in task   7:        37
  | K-points in task   8:        37
  | K-points in task   9:        37
  | K-points in task  10:        37
  | K-points in task  11:        37
  | K-points in task  12:        37
  | K-points in task  13:        37
  | K-points in task  14:        37
  | K-points in task  15:        37
  | K-points in task  16:        37
  | K-points in task  17:        37
  | K-points in task  18:        37
  | K-points in task  19:        37
  | K-points in task  20:        37
  | K-points in task  21:        37
  | K-points in task  22:        37
  | K-points in task  23:        37
  | K-points in task  24:        37
  | K-points in task  25:        37
  | K-points in task  26:        37
  | K-points in task  27:        37
  | K-points in task  28:        37
  | K-points in task  29:        37
  | K-points in task  30:        37
  | K-points in task  31:        37
  | K-points in task  32:        37
  | K-points in task  33:        37
  | K-points in task  34:        37
  | K-points in task  35:        37
  | K-points in task  36:        37
  | K-points in task  37:        37
  | K-points in task  38:        37
  | K-points in task  39:        37
  | K-points in task  40:        37
  | K-points in task  41:        36
  | K-points in task  42:        36
  | K-points in task  43:        36
  | K-points in task  44:        36
  | K-points in task  45:        36
  | K-points in task  46:        36
  | K-points in task  47:        36
  | K-points in task  48:        36
  | K-points in task  49:        36
  | K-points in task  50:        36
  | K-points in task  51:        36
  | K-points in task  52:        36
  | K-points in task  53:        36
  | K-points in task  54:        36
  | K-points in task  55:        36
  | K-points in task  56:        36
  | K-points in task  57:        36
  | K-points in task  58:        36
  | K-points in task  59:        36
  | K-points in task  60:        36
  | K-points in task  61:        36
  | K-points in task  62:        36
  | K-points in task  63:        36
  | K-points in task  64:        36
  | K-points in task  65:        36
  | K-points in task  66:        36
  | K-points in task  67:        36
  | K-points in task  68:        36
  | K-points in task  69:        36
  | K-points in task  70:        36
  | K-points in task  71:        36
  | K-points in task  72:        36
  | K-points in task  73:        36
  | K-points in task  74:        36
  | K-points in task  75:        36
  | K-points in task  76:        36
  | K-points in task  77:        36
  | K-points in task  78:        36
  | K-points in task  79:        36
  | Number of basis functions in the Hamiltonian integrals :      7152
  | Number of basis functions in a single unit cell        :       156
  | Number of centers in hartree potential         :      1424
  | Number of centers in hartree multipole         :      1294
  | Number of centers in electron density summation:       970
  | Number of centers in basis integrals           :      1020
  | Number of centers in integrals                 :       340
  | Number of centers in hamiltonian               :       970
  | Consuming      14143 KiB for k_phase.
  | Number of super-cells (origin) [n_cells]                     :        1575
  | Number of super-cells (after PM_index) [n_cells]             :         310
  | Number of super-cells in hamiltonian [n_cells_in_hamiltonian]:         310
  | Size of matrix packed + index [n_hamiltonian_matrix_size] :     1112301
  Initializing relaxation algorithms.
  Partitioning the integration grid into batches with parallel hashing+maxmin method.
  | Number of batches:      939
  | Maximal batch size:     109
  | Minimal batch size:      52
  | Average batch size:      77.010
  | Standard deviation of batch sizes:      13.560

  Integration load balanced across    80 MPI tasks.
  Work distribution over tasks is as follows:
  Task     0 has        870 integration points.
  Task     1 has        885 integration points.
  Task     2 has        912 integration points.
  Task     3 has        890 integration points.
  Task     4 has        893 integration points.
  Task     5 has        899 integration points.
  Task     6 has        907 integration points.
  Task     7 has        914 integration points.
  Task     8 has        965 integration points.
  Task     9 has        921 integration points.
  Task    10 has        909 integration points.
  Task    11 has        903 integration points.
  Task    12 has        867 integration points.
  Task    13 has        873 integration points.
  Task    14 has        904 integration points.
  Task    15 has        903 integration points.
  Task    16 has        869 integration points.
  Task    17 has        868 integration points.
  Task    18 has        943 integration points.
  Task    19 has        919 integration points.
  Task    20 has        913 integration points.
  Task    21 has        880 integration points.
  Task    22 has        962 integration points.
  Task    23 has        870 integration points.
  Task    24 has        900 integration points.
  Task    25 has        964 integration points.
  Task    26 has        906 integration points.
  Task    27 has        901 integration points.
  Task    28 has        870 integration points.
  Task    29 has        867 integration points.
  Task    30 has        882 integration points.
  Task    31 has        902 integration points.
  Task    32 has        921 integration points.
  Task    33 has        900 integration points.
  Task    34 has        960 integration points.
  Task    35 has        968 integration points.
  Task    36 has        899 integration points.
  Task    37 has        965 integration points.
  Task    38 has        869 integration points.
  Task    39 has        901 integration points.
  Task    40 has        944 integration points.
  Task    41 has        906 integration points.
  Task    42 has        918 integration points.
  Task    43 has        870 integration points.
  Task    44 has        906 integration points.
  Task    45 has        915 integration points.
  Task    46 has        902 integration points.
  Task    47 has        918 integration points.
  Task    48 has        963 integration points.
  Task    49 has        915 integration points.
  Task    50 has        903 integration points.
  Task    51 has        881 integration points.
  Task    52 has        892 integration points.
  Task    53 has        900 integration points.
  Task    54 has        923 integration points.
  Task    55 has        928 integration points.
  Task    56 has        876 integration points.
  Task    57 has        866 integration points.
  Task    58 has        871 integration points.
  Task    59 has        889 integration points.
  Task    60 has        866 integration points.
  Task    61 has        919 integration points.
  Task    62 has        905 integration points.
  Task    63 has        924 integration points.
  Task    64 has        902 integration points.
  Task    65 has        914 integration points.
  Task    66 has        903 integration points.
  Task    67 has        962 integration points.
  Task    68 has        896 integration points.
  Task    69 has        893 integration points.
  Task    70 has        879 integration points.
  Task    71 has        878 integration points.
  Task    72 has        896 integration points.
  Task    73 has        923 integration points.
  Task    74 has        898 integration points.
  Task    75 has        901 integration points.
  Task    76 has        874 integration points.
  Task    77 has        881 integration points.
  Task    78 has        879 integration points.
  Task    79 has        919 integration points.
  Initializing partition tables, free-atom densities, potentials, etc. across the integration grid (initialize_grid_storage).
  | initialize_grid_storage: Actual outermost partition radius vs. multipole_radius_free
  | (-- VB: in principle, multipole_radius_free should be larger, hence this output)
  | Species        1: Confinement radius =              6.000000000000000 AA, multipole_radius_free =              6.029870734432609 AA.
  | Species        1: outer_partition_radius set to              6.029870734432609 AA .
  | Original list of interatomic distances with        1020 x       1020 entries is created.
  | Net number of integration points:    72312
  | of which are non-zero points    :    49128
  | Numerical average free-atom electrostatic potential    :    -14.04107976 eV
  Renormalizing the initial density to the exact electron count on the 3D integration grid.
  | Initial density: Formal number of electrons (from input files) :      24.0000000000
  | Integrated number of electrons on 3D grid     :      24.0000819816
  | Charge integration error                      :       0.0000819816
  | Normalization factor for density and gradient :       0.9999965841
  Obtaining max. number of non-zero basis functions in each batch (get_n_compute_maxes).
  | Maximal number of non-zero basis functions:     2169 in task     0
  | Maximal number of non-zero basis functions:     2146 in task     1
  | Maximal number of non-zero basis functions:     2178 in task     2
  | Maximal number of non-zero basis functions:     2130 in task     3
  | Maximal number of non-zero basis functions:     2221 in task     4
  | Maximal number of non-zero basis functions:     2148 in task     5
  | Maximal number of non-zero basis functions:     2133 in task     6
  | Maximal number of non-zero basis functions:     2106 in task     7
  | Maximal number of non-zero basis functions:     2192 in task     8
  | Maximal number of non-zero basis functions:     2190 in task     9
  | Maximal number of non-zero basis functions:     2227 in task    10
  | Maximal number of non-zero basis functions:     2135 in task    11
  | Maximal number of non-zero basis functions:     2163 in task    12
  | Maximal number of non-zero basis functions:     2194 in task    13
  | Maximal number of non-zero basis functions:     2187 in task    14
  | Maximal number of non-zero basis functions:     2181 in task    15
  | Maximal number of non-zero basis functions:     2186 in task    16
  | Maximal number of non-zero basis functions:     2182 in task    17
  | Maximal number of non-zero basis functions:     2197 in task    18
  | Maximal number of non-zero basis functions:     2145 in task    19
  | Maximal number of non-zero basis functions:     2207 in task    20
  | Maximal number of non-zero basis functions:     2161 in task    21
  | Maximal number of non-zero basis functions:     2184 in task    22
  | Maximal number of non-zero basis functions:     2142 in task    23
  | Maximal number of non-zero basis functions:     2209 in task    24
  | Maximal number of non-zero basis functions:     2127 in task    25
  | Maximal number of non-zero basis functions:     2205 in task    26
  | Maximal number of non-zero basis functions:     2172 in task    27
  | Maximal number of non-zero basis functions:     2190 in task    28
  | Maximal number of non-zero basis functions:     2187 in task    29
  | Maximal number of non-zero basis functions:     2122 in task    30
  | Maximal number of non-zero basis functions:     2209 in task    31
  | Maximal number of non-zero basis functions:     2222 in task    32
  | Maximal number of non-zero basis functions:     2167 in task    33
  | Maximal number of non-zero basis functions:     2172 in task    34
  | Maximal number of non-zero basis functions:     2271 in task    35
  | Maximal number of non-zero basis functions:     2167 in task    36
  | Maximal number of non-zero basis functions:     2189 in task    37
  | Maximal number of non-zero basis functions:     2205 in task    38
  | Maximal number of non-zero basis functions:     2186 in task    39
  | Maximal number of non-zero basis functions:     2213 in task    40
  | Maximal number of non-zero basis functions:     2139 in task    41
  | Maximal number of non-zero basis functions:     2174 in task    42
  | Maximal number of non-zero basis functions:     2153 in task    43
  | Maximal number of non-zero basis functions:     2186 in task    44
  | Maximal number of non-zero basis functions:     2179 in task    45
  | Maximal number of non-zero basis functions:     2170 in task    46
  | Maximal number of non-zero basis functions:     2151 in task    47
  | Maximal number of non-zero basis functions:     2147 in task    48
  | Maximal number of non-zero basis functions:     2187 in task    49
  | Maximal number of non-zero basis functions:     2183 in task    50
  | Maximal number of non-zero basis functions:     2159 in task    51
  | Maximal number of non-zero basis functions:     2144 in task    52
  | Maximal number of non-zero basis functions:     2110 in task    53
  | Maximal number of non-zero basis functions:     2213 in task    54
  | Maximal number of non-zero basis functions:     2143 in task    55
  | Maximal number of non-zero basis functions:     2160 in task    56
  | Maximal number of non-zero basis functions:     2181 in task    57
  | Maximal number of non-zero basis functions:     2205 in task    58
  | Maximal number of non-zero basis functions:     2130 in task    59
  | Maximal number of non-zero basis functions:     2206 in task    60
  | Maximal number of non-zero basis functions:     2119 in task    61
  | Maximal number of non-zero basis functions:     2177 in task    62
  | Maximal number of non-zero basis functions:     2135 in task    63
  | Maximal number of non-zero basis functions:     2205 in task    64
  | Maximal number of non-zero basis functions:     2170 in task    65
  | Maximal number of non-zero basis functions:     2175 in task    66
  | Maximal number of non-zero basis functions:     2165 in task    67
  | Maximal number of non-zero basis functions:     2197 in task    68
  | Maximal number of non-zero basis functions:     2162 in task    69
  | Maximal number of non-zero basis functions:     2150 in task    70
  | Maximal number of non-zero basis functions:     2135 in task    71
  | Maximal number of non-zero basis functions:     2114 in task    72
  | Maximal number of non-zero basis functions:     2226 in task    73
  | Maximal number of non-zero basis functions:     2198 in task    74
  | Maximal number of non-zero basis functions:     2170 in task    75
  | Maximal number of non-zero basis functions:     2199 in task    76
  | Maximal number of non-zero basis functions:     2181 in task    77
  | Maximal number of non-zero basis functions:     2209 in task    78
  | Maximal number of non-zero basis functions:     2200 in task    79
  Allocating        2.157 MB for KS_eigenvector_complex
  Integrating Hamiltonian matrix: batch-based integration.
  Time summed over all CPUs for integration: real work       60.563 s, elapsed       65.806 s
  Integrating overlap matrix.
  Time summed over all CPUs for integration: real work       48.868 s, elapsed       53.663 s
  Decreasing sparse matrix size:
   Tolerance:  9.999999824516700E-014
   Hamiltonian matrix
  | Array has   805750 nonzero elements out of  1112301 elements
  | Sparsity factor is 0.276
   Overlap matrix
  | Array has   738758 nonzero elements out of  1112301 elements
  | Sparsity factor is 0.336
  New size of hamiltonian matrix:      807919

  Updating Kohn-Sham eigenvalues and eigenvectors using ELSI and the ELPA eigensolver.
  Overlap matrix is nonsingular
  | Lowest eigenvalue of overlap  :  0.91E-04
  | Highest eigenvalue of overlap :  0.12E+02
  Finished singularity check of overlap matrix
  | Time :     0.013 s
  Finished Cholesky decomposition
  | Time :     0.004 s
  Finished transformation to standard eigenproblem
  | Time :     0.001 s
  Starting LAPACK eigensolver
  Finished solving standard eigenproblem
  | Time :     0.003 s
  Finished back-transformation of eigenvectors
  | Time :     0.000 s

  Obtaining occupation numbers and chemical potential using ELSI.
  | Chemical potential (Fermi level):    -8.29394194eV
  Writing Kohn-Sham eigenvalues.
  K-point:       1 at    0.000000    0.000000    0.000000 (in units of recip. lattice)

  State    Occupation    Eigenvalue [Ha]    Eigenvalue [eV]
      1       2.00000         -10.166665         -276.64904
      2       2.00000         -10.166665         -276.64902
      3       2.00000         -10.165707         -276.62296
      4       2.00000         -10.165707         -276.62296
      5       2.00000          -1.052018          -28.62686
      6       2.00000          -1.044067          -28.41052
      7       2.00000          -0.601500          -16.36764
      8       2.00000          -0.544764          -14.82379
      9       2.00000          -0.469080          -12.76431
     10       2.00000          -0.469080          -12.76431
     11       2.00000          -0.468619          -12.75177
     12       2.00000          -0.468619          -12.75177
     13       0.00000          -0.080400           -2.18779
     14       0.00000          -0.030689           -0.83509
     15       0.00000          -0.030688           -0.83507
     16       0.00000          -0.029369           -0.79918
     17       0.00000          -0.029368           -0.79916
     18       0.00000           0.093146            2.53464
     19       0.00000           0.098826            2.68918
     20       0.00000           0.126375            3.43883
     21       0.00000           0.132080            3.59407
     22       0.00000           0.137496            3.74146
     23       0.00000           0.415112           11.29578
     24       0.00000           0.558242           15.19054

  What follows are estimated values for band gap, HOMO, LUMO, etc.
  | They are estimated on a discrete k-point grid and not necessarily exact.
  | For converged numbers, create a DOS and/or band structure plot on a denser k-grid.

  Highest occupied state (VBM) at     -8.29550313 eV (relative to internal zero)
  | Occupation number:      1.17474104
  | K-point:    1464 at    0.333333    0.333333    0.222222 (in units of recip. lattice)

  Lowest unoccupied state (CBM) at    -8.29264073 eV (relative to internal zero)
  | Occupation number:      0.85399915
  | K-point:    1468 at    0.333333    0.333333    0.500000 (in units of recip. lattice)

  ESTIMATED overall HOMO-LUMO gap:      0.00286240 eV between HOMO at k-point 1464 and LUMO at k-point 1468
  | This appears to be an indirect band gap.
  | Smallest direct gap :      0.09458066 eV for k_point 1467 at    0.333333    0.333333    0.500000 (in units of recip. lattice)
  However, this system has fractional occupation numbers. Since we use a finite k-point grid,
  this material is metallic within the approximate finite broadening function (occupation_type)
  applied to determine the occupation numbers.
  Calculating total energy contributions from superposition of free atom densities.

  Total energy components:
  | Sum of eigenvalues            :         -92.01134336 Ha       -2503.75604262 eV
  | XC energy correction          :         -21.41694622 Ha        -582.78475833 eV
  | XC potential correction       :          27.51703132 Ha         748.77651945 eV
  | Free-atom electrostatic energy:         -66.62161803 Ha       -1812.86646424 eV
  | Hartree energy correction     :           0.00000000 Ha           0.00000000 eV
  | Entropy correction            :          -0.00000100 Ha          -0.00002712 eV
  | ---------------------------
  | Total energy                  :        -152.53287629 Ha       -4150.63074574 eV
  | Total energy, T -> 0          :        -152.53287729 Ha       -4150.63077287 eV  <-- do not rely on this value for anything but (periodic) metals
  | Electronic free energy        :        -152.53287829 Ha       -4150.63079999 eV

  Derived energy quantities:
  | Kinetic energy                :         151.91542164 Ha        4133.82894973 eV
  | Electrostatic energy          :        -283.03135172 Ha       -7701.67493714 eV
  | Energy correction for multipole
  | error in Hartree potential    :           0.00000000 Ha           0.00000000 eV
  | Sum of eigenvalues per atom                           :        -625.93901065 eV
  | Total energy (T->0) per atom                          :       -1037.65769322 eV  <-- do not rely on this value for anything but (periodic) metals
  | Electronic free energy per atom                       :       -1037.65770000 eV
  Initialize hartree_potential_storage
  Max. number of atoms included in rho_multipole:            4

  End scf initialization - timings             :  max(cpu_time)    wall_clock(cpu1)
  | Time for scf. initialization               :        3.764 s           3.761 s
  | Boundary condition initialization          :        0.472 s           0.470 s
  | Relaxation initialization                  :        0.008 s           0.008 s
  | Integration                                :        2.148 s           2.142 s
  | Solution of K.-S. eqns.                    :        0.728 s           0.728 s
  | Grid partitioning                          :        0.092 s           0.088 s
  | Preloading free-atom quantities on grid    :        0.008 s           0.004 s
  | Free-atom superposition energy             :        0.020 s           0.017 s
  | Total energy evaluation                    :        0.004 s           0.002 s

  Partial memory accounting:
  | Current value for overall tracked memory usage on task 0  :          18.315 MB
  | Peak value for overall tracked memory usage on task 0     :          67.766 MB after allocating wave
  | Largest tracked array allocation on task 0 so far         :          37.636 MB  when allocating hamiltonian_shell
  Note:  These values currently only include a subset of arrays which are explicitly tracked.
  The "true" memory usage will be greater.
------------------------------------------------------------

------------------------------------------------------------
          Begin self-consistency iteration #    1

  Date     :  20191127, Time     :  201625.938
------------------------------------------------------------
  Evaluating new KS density using the density matrix
  Evaluating density matrix
  Time summed over all CPUs for getting density from density matrix: real work      112.972 s, elapsed      122.731 s
  Integration grid: deviation in total charge (<rho> - N_e) =   6.604495E-12
  Pulay mixing of updated and previous charge densities.

  Evaluating partitioned Hartree potential by multipole expansion.
  | Analytical far-field extrapolation by fixed multipoles:
  | Hartree multipole sum: apparent total charge =   0.446584E-03
  Summing up the Hartree potential.
  | Estimated reciprocal-space cutoff momentum G_max:         3.55244536 bohr^-1 .
  | Reciprocal lattice points for long-range Hartree potential:     188
  Time summed over all CPUs for potential: real work        7.166 s, elapsed        8.032 s
  | RMS charge density error from multipole expansion :   0.584084E-03
  | Average real-space part of the electrostatic potential :      0.02269068 eV

  Integrating Hamiltonian matrix: batch-based integration.
  Time summed over all CPUs for integration: real work       57.148 s, elapsed       61.873 s

  Updating Kohn-Sham eigenvalues and eigenvectors using ELSI and the ELPA eigensolver.
  Finished Cholesky decomposition
  | Time :     0.001 s
  Finished transformation to standard eigenproblem
  | Time :     0.001 s
  Starting LAPACK eigensolver
  Finished solving standard eigenproblem
  | Time :     0.003 s
  Finished back-transformation of eigenvectors
  | Time :     0.000 s

  Obtaining occupation numbers and chemical potential using ELSI.
  | Chemical potential (Fermi level):    -8.20319706eV
  Writing Kohn-Sham eigenvalues.
  K-point:       1 at    0.000000    0.000000    0.000000 (in units of recip. lattice)

  State    Occupation    Eigenvalue [Ha]    Eigenvalue [eV]
      1       2.00000         -10.157598         -276.40229
      2       2.00000         -10.157597         -276.40228
      3       2.00000         -10.156632         -276.37603
      4       2.00000         -10.156632         -276.37603
      5       2.00000          -1.047373          -28.50047
      6       2.00000          -1.039263          -28.27978
      7       2.00000          -0.599237          -16.30606
      8       2.00000          -0.541607          -14.73789
      9       2.00000          -0.462717          -12.59116
     10       2.00000          -0.462716          -12.59115
     11       2.00000          -0.462245          -12.57833
     12       2.00000          -0.462245          -12.57833
     13       0.00000          -0.081192           -2.20936
     14       0.00000          -0.025344           -0.68964
     15       0.00000          -0.025343           -0.68962
     16       0.00000          -0.023997           -0.65300
     17       0.00000          -0.023997           -0.65298
     18       0.00000           0.097785            2.66087
     19       0.00000           0.103558            2.81796
     20       0.00000           0.126624            3.44562
     21       0.00000           0.136965            3.72701
     22       0.00000           0.142480            3.87707
     23       0.00000           0.415831           11.31533
     24       0.00000           0.560499           15.25195

  What follows are estimated values for band gap, HOMO, LUMO, etc.
  | They are estimated on a discrete k-point grid and not necessarily exact.
  | For converged numbers, create a DOS and/or band structure plot on a denser k-grid.

  Highest occupied state (VBM) at     -8.20478142 eV (relative to internal zero)
  | Occupation number:      1.17729041
  | K-point:    1472 at    0.333333    0.333333    0.777778 (in units of recip. lattice)

  Lowest unoccupied state (CBM) at    -8.20242157 eV (relative to internal zero)
  | Occupation number:      0.91267010
  | K-point:    1468 at    0.333333    0.333333    0.500000 (in units of recip. lattice)

  ESTIMATED overall HOMO-LUMO gap:      0.00235985 eV between HOMO at k-point 1472 and LUMO at k-point 1468
  | This appears to be an indirect band gap.
  | Smallest direct gap :      0.09693067 eV for k_point 1467 at    0.333333    0.333333    0.500000 (in units of recip. lattice)
  However, this system has fractional occupation numbers. Since we use a finite k-point grid,
  this material is metallic within the approximate finite broadening function (occupation_type)
  applied to determine the occupation numbers.

  Total energy components:
  | Sum of eigenvalues            :         -91.86114322 Ha       -2499.66888890 eV
  | XC energy correction          :         -21.42968262 Ha        -583.13133361 eV
  | XC potential correction       :          27.53346700 Ha         749.22375712 eV
  | Free-atom electrostatic energy:         -66.62161803 Ha       -1812.86646424 eV
  | Hartree energy correction     :          -0.14413291 Ha          -3.92205599 eV
  | Entropy correction            :          -0.00000097 Ha          -0.00002653 eV
  | ---------------------------
  | Total energy                  :        -152.52310979 Ha       -4150.36498561 eV
  | Total energy, T -> 0          :        -152.52311076 Ha       -4150.36501214 eV  <-- do not rely on this value for anything but (periodic) metals
  | Electronic free energy        :        -152.52311174 Ha       -4150.36503866 eV

  Derived energy quantities:
  | Kinetic energy                :         151.95836380 Ha        4134.99746522 eV
  | Electrostatic energy          :        -283.05179096 Ha       -7702.23111723 eV
  | Energy correction for multipole
  | error in Hartree potential    :          -0.00131143 Ha          -0.03568571 eV
  | Sum of eigenvalues per atom                           :        -624.91722223 eV
  | Total energy (T->0) per atom                          :       -1037.59125303 eV  <-- do not rely on this value for anything but (periodic) metals
  | Electronic free energy per atom                       :       -1037.59125967 eV

  Self-consistency convergence accuracy:
  | Change of charge density      :  0.3312E+00
  | Change of sum of eigenvalues  :  0.4087E+01 eV
  | Change of total energy        :  0.2658E+00 eV

  End self-consistency iteration #     1       :  max(cpu_time)    wall_clock(cpu1)
  | Time for this iteration                    :        3.584 s           3.579 s
  | Charge density update                      :        1.872 s           1.866 s
  | Density mixing & preconditioning           :        0.080 s           0.078 s
  | Hartree multipole update                   :        0.012 s           0.009 s
  | Hartree multipole summation                :        0.112 s           0.109 s
  | Integration                                :        0.912 s           0.908 s
  | Solution of K.-S. eqns.                    :        0.608 s           0.607 s
  | Total energy evaluation                    :        0.004 s           0.002 s

  Partial memory accounting:
  | Current value for overall tracked memory usage on task 0  :          18.315 MB
  | Peak value for overall tracked memory usage on task 0     :          67.766 MB after allocating wave
  | Largest tracked array allocation on task 0 so far         :          37.636 MB  when allocating hamiltonian_shell
  Note:  These values currently only include a subset of arrays which are explicitly tracked.
  The "true" memory usage will be greater.
------------------------------------------------------------

------------------------------------------------------------
          Begin self-consistency iteration #    2

  Date     :  20191127, Time     :  201629.519
------------------------------------------------------------
  Evaluating new KS density using the density matrix
  Evaluating density matrix
  Time summed over all CPUs for getting density from density matrix: real work      112.773 s, elapsed      122.595 s
  Integration grid: deviation in total charge (<rho> - N_e) =   6.586731E-12
  Pulay mixing of updated and previous charge densities.

  Evaluating partitioned Hartree potential by multipole expansion.
  | Analytical far-field extrapolation by fixed multipoles:
  | Hartree multipole sum: apparent total charge =   0.634059E-02
  Summing up the Hartree potential.
  Time summed over all CPUs for potential: real work        7.360 s, elapsed        8.209 s
  | RMS charge density error from multipole expansion :   0.104584E-01
  | Average real-space part of the electrostatic potential :      0.40767038 eV

  Integrating Hamiltonian matrix: batch-based integration.
  Time summed over all CPUs for integration: real work       57.143 s, elapsed       61.862 s

  Updating Kohn-Sham eigenvalues and eigenvectors using ELSI and the ELPA eigensolver.
  Finished Cholesky decomposition
  | Time :     0.001 s
  Finished transformation to standard eigenproblem
  | Time :     0.001 s
  Starting LAPACK eigensolver
  Finished solving standard eigenproblem
  | Time :     0.003 s
  Finished back-transformation of eigenvectors
  | Time :     0.000 s

  Obtaining occupation numbers and chemical potential using ELSI.
  | Chemical potential (Fermi level):    -6.72992646eV
  What follows are estimated values for band gap, HOMO, LUMO, etc.
  | They are estimated on a discrete k-point grid and not necessarily exact.
  | For converged numbers, create a DOS and/or band structure plot on a denser k-grid.

  Highest occupied state (VBM) at     -6.73223286 eV (relative to internal zero)
  | Occupation number:      1.25570737
  | K-point:    1464 at    0.333333    0.333333    0.222222 (in units of recip. lattice)

  Lowest unoccupied state (CBM) at    -6.72632934 eV (relative to internal zero)
  | Occupation number:      0.61095546
  | K-point:    1465 at    0.333333    0.333333    0.277778 (in units of recip. lattice)

  ESTIMATED overall HOMO-LUMO gap:      0.00590352 eV between HOMO at k-point 1464 and LUMO at k-point 1465
  | This appears to be an indirect band gap.
  | Smallest direct gap :      0.02243231 eV for k_point 1468 at    0.333333    0.333333    0.277778 (in units of recip. lattice)
  However, this system has fractional occupation numbers. Since we use a finite k-point grid,
  this material is metallic within the approximate finite broadening function (occupation_type)
  applied to determine the occupation numbers.

  Checking to see if s.c.f. parameters should be adjusted.
  Adjusted the Pulay mixing parameter (charge_mix_param) for an expected low-gap system. New value:   0.020000 .
  Adjusted the occupation broadening width for an expected low-gap system. New value:      0.05000000 eV.

  Total energy components:
  | Sum of eigenvalues            :         -89.35508222 Ha       -2431.47549927 eV
  | XC energy correction          :         -21.68041024 Ha        -589.95397911 eV
  | XC potential correction       :          27.85460484 Ha         757.96236253 eV
  | Free-atom electrostatic energy:         -66.62161803 Ha       -1812.86646424 eV
  | Hartree energy correction     :          -2.64617648 Ha         -72.00612573 eV
  | Entropy correction            :          -0.00000640 Ha          -0.00017413 eV
  | ---------------------------
  | Total energy                  :        -152.44868213 Ha       -4148.33970582 eV
  | Total energy, T -> 0          :        -152.44868852 Ha       -4148.33987995 eV  <-- do not rely on this value for anything but (periodic) metals
  | Electronic free energy        :        -152.44869492 Ha       -4148.34005408 eV

  Derived energy quantities:
  | Kinetic energy                :         152.51097993 Ha        4150.03491523 eV
  | Electrostatic energy          :        -283.27925181 Ha       -7708.42064194 eV
  | Energy correction for multipole
  | error in Hartree potential    :          -0.02330719 Ha          -0.63422091 eV
  | Sum of eigenvalues per atom                           :        -607.86887482 eV
  | Total energy (T->0) per atom                          :       -1037.08496999 eV  <-- do not rely on this value for anything but (periodic) metals
  | Electronic free energy per atom                       :       -1037.08501352 eV

  Self-consistency convergence accuracy:
  | Change of charge density      :  0.3127E+00
  | Change of sum of eigenvalues  :  0.6819E+02 eV
  | Change of total energy        :  0.2025E+01 eV

  End self-consistency iteration #     2       :  max(cpu_time)    wall_clock(cpu1)
  | Time for this iteration                    :        3.564 s           3.559 s
  | Charge density update                      :        1.868 s           1.864 s
  | Density mixing & preconditioning           :        0.076 s           0.076 s
  | Hartree multipole update                   :        0.012 s           0.009 s
  | Hartree multipole summation                :        0.112 s           0.111 s
  | Integration                                :        0.908 s           0.907 s
  | Solution of K.-S. eqns.                    :        0.592 s           0.589 s
  | Total energy evaluation                    :        0.004 s           0.002 s

  Partial memory accounting:
  | Current value for overall tracked memory usage on task 0  :          18.316 MB
  | Peak value for overall tracked memory usage on task 0     :          67.766 MB after allocating wave
  | Largest tracked array allocation on task 0 so far         :          37.636 MB  when allocating hamiltonian_shell
  Note:  These values currently only include a subset of arrays which are explicitly tracked.
  The "true" memory usage will be greater.
------------------------------------------------------------

------------------------------------------------------------
          Begin self-consistency iteration #    3

  Date     :  20191127, Time     :  201633.078
------------------------------------------------------------
  Evaluating new KS density using the density matrix
  Evaluating density matrix
  Time summed over all CPUs for getting density from density matrix: real work      112.766 s, elapsed      122.618 s
  Integration grid: deviation in total charge (<rho> - N_e) =   6.508571E-12
  Pulay mixing of updated and previous charge densities.

  Evaluating partitioned Hartree potential by multipole expansion.
  | Analytical far-field extrapolation by fixed multipoles:
  | Hartree multipole sum: apparent total charge =   0.485567E-02
  Summing up the Hartree potential.
  Time summed over all CPUs for potential: real work        7.358 s, elapsed        8.211 s
  | RMS charge density error from multipole expansion :   0.106694E-01
  | Average real-space part of the electrostatic potential :      0.40538495 eV

  Integrating Hamiltonian matrix: batch-based integration.
  Time summed over all CPUs for integration: real work       57.145 s, elapsed       61.864 s

  Updating Kohn-Sham eigenvalues and eigenvectors using ELSI and the ELPA eigensolver.
  Finished Cholesky decomposition
  | Time :     0.000 s
  Finished transformation to standard eigenproblem
  | Time :     0.001 s
  Starting LAPACK eigensolver
  Finished solving standard eigenproblem
  | Time :     0.003 s
  Finished back-transformation of eigenvectors
  | Time :     0.000 s

  Obtaining occupation numbers and chemical potential using ELSI.
  | Chemical potential (Fermi level):    -6.80554017eV
  What follows are estimated values for band gap, HOMO, LUMO, etc.
  | They are estimated on a discrete k-point grid and not necessarily exact.
  | For converged numbers, create a DOS and/or band structure plot on a denser k-grid.

  Highest occupied state (VBM) at     -6.80815596 eV (relative to internal zero)
  | Occupation number:      1.05897828
  | K-point:    1472 at    0.333333    0.333333    0.777778 (in units of recip. lattice)

  Lowest unoccupied state (CBM) at    -6.80248498 eV (relative to internal zero)
  | Occupation number:      0.93113755
  | K-point:    1471 at    0.333333    0.333333    0.722222 (in units of recip. lattice)

  ESTIMATED overall HOMO-LUMO gap:      0.00567098 eV between HOMO at k-point 1472 and LUMO at k-point 1471
  | This appears to be an indirect band gap.
  | Smallest direct gap :      0.02060853 eV for k_point 1468 at    0.333333    0.333333    0.722222 (in units of recip. lattice)
  However, this system has fractional occupation numbers. Since we use a finite k-point grid,
  this material is metallic within the approximate finite broadening function (occupation_type)
  applied to determine the occupation numbers.

  Total energy components:
  | Sum of eigenvalues            :         -89.51635812 Ha       -2435.86403994 eV
  | XC energy correction          :         -21.65858171 Ha        -589.35999453 eV
  | XC potential correction       :          27.82725332 Ha         757.21808956 eV
  | Free-atom electrostatic energy:         -66.62161803 Ha       -1812.86646424 eV
  | Hartree energy correction     :          -2.47928546 Ha         -67.46478983 eV
  | Entropy correction            :          -0.00000643 Ha          -0.00017491 eV
  | ---------------------------
  | Total energy                  :        -152.44859000 Ha       -4148.33719897 eV
  | Total energy, T -> 0          :        -152.44859643 Ha       -4148.33737388 eV  <-- do not rely on this value for anything but (periodic) metals
  | Electronic free energy        :        -152.44860286 Ha       -4148.33754878 eV

  Derived energy quantities:
  | Kinetic energy                :         152.33959234 Ha        4145.37122184 eV
  | Electrostatic energy          :        -283.12960064 Ha       -7704.34842629 eV
  | Energy correction for multipole
  | error in Hartree potential    :          -0.02361417 Ha          -0.64257430 eV
  | Sum of eigenvalues per atom                           :        -608.96600998 eV
  | Total energy (T->0) per atom                          :       -1037.08434347 eV  <-- do not rely on this value for anything but (periodic) metals
  | Electronic free energy per atom                       :       -1037.08438720 eV

  Self-consistency convergence accuracy:
  | Change of charge density      :  0.3689E-01
  | Change of sum of eigenvalues  : -0.4389E+01 eV
  | Change of total energy        :  0.2507E-02 eV

  End self-consistency iteration #     3       :  max(cpu_time)    wall_clock(cpu1)
  | Time for this iteration                    :        3.580 s           3.576 s
  | Charge density update                      :        1.876 s           1.871 s
  | Density mixing & preconditioning           :        0.076 s           0.077 s
  | Hartree multipole update                   :        0.012 s           0.008 s
  | Hartree multipole summation                :        0.112 s           0.112 s
  | Integration                                :        0.908 s           0.907 s
  | Solution of K.-S. eqns.                    :        0.600 s           0.599 s
  | Total energy evaluation                    :        0.004 s           0.002 s

  Partial memory accounting:
  | Current value for overall tracked memory usage on task 0  :          18.316 MB
  | Peak value for overall tracked memory usage on task 0     :          67.766 MB after allocating wave
  | Largest tracked array allocation on task 0 so far         :          37.636 MB  when allocating hamiltonian_shell
  Note:  These values currently only include a subset of arrays which are explicitly tracked.
  The "true" memory usage will be greater.
------------------------------------------------------------

------------------------------------------------------------
          Begin self-consistency iteration #    4

  Date     :  20191127, Time     :  201636.655
------------------------------------------------------------
  Evaluating new KS density using the density matrix
  Evaluating density matrix
  Time summed over all CPUs for getting density from density matrix: real work      112.782 s, elapsed      122.615 s
  Integration grid: deviation in total charge (<rho> - N_e) =   6.544099E-12
  Pulay mixing of updated and previous charge densities.

  Evaluating partitioned Hartree potential by multipole expansion.
  | Analytical far-field extrapolation by fixed multipoles:
  | Hartree multipole sum: apparent total charge =   0.195546E-02
  Summing up the Hartree potential.
  Time summed over all CPUs for potential: real work        7.383 s, elapsed        8.229 s
  | RMS charge density error from multipole expansion :   0.123175E-01
  | Average real-space part of the electrostatic potential :      0.44327532 eV

  Integrating Hamiltonian matrix: batch-based integration.
  Time summed over all CPUs for integration: real work       57.146 s, elapsed       61.824 s

  Updating Kohn-Sham eigenvalues and eigenvectors using ELSI and the ELPA eigensolver.
  Finished Cholesky decomposition
  | Time :     0.000 s
  Finished transformation to standard eigenproblem
  | Time :     0.001 s
  Starting LAPACK eigensolver
  Finished solving standard eigenproblem
  | Time :     0.003 s
  Finished back-transformation of eigenvectors
  | Time :     0.000 s

  Obtaining occupation numbers and chemical potential using ELSI.
  | Chemical potential (Fermi level):    -6.82386553eV
  What follows are estimated values for band gap, HOMO, LUMO, etc.
  | They are estimated on a discrete k-point grid and not necessarily exact.
  | For converged numbers, create a DOS and/or band structure plot on a denser k-grid.

  Highest occupied state (VBM) at     -6.82592353 eV (relative to internal zero)
  | Occupation number:      1.04641789
  | K-point:    1468 at    0.333333    0.333333    0.500000 (in units of recip. lattice)

  Lowest unoccupied state (CBM) at    -6.82099565 eV (relative to internal zero)
  | Occupation number:      0.93530466
  | K-point:    1471 at    0.333333    0.333333    0.722222 (in units of recip. lattice)

  ESTIMATED overall HOMO-LUMO gap:      0.00492789 eV between HOMO at k-point 1468 and LUMO at k-point 1471
  | This appears to be an indirect band gap.
  | Smallest direct gap :      0.01812641 eV for k_point 1468 at    0.333333    0.333333    0.722222 (in units of recip. lattice)
  However, this system has fractional occupation numbers. Since we use a finite k-point grid,
  this material is metallic within the approximate finite broadening function (occupation_type)
  applied to determine the occupation numbers.

  Total energy components:
  | Sum of eigenvalues            :         -89.61895295 Ha       -2438.65578727 eV
  | XC energy correction          :         -21.63944239 Ha        -588.83918720 eV
  | XC potential correction       :          27.80382216 Ha         756.58049549 eV
  | Free-atom electrostatic energy:         -66.62161803 Ha       -1812.86646424 eV
  | Hartree energy correction     :          -2.37263505 Ha         -64.56268450 eV
  | Entropy correction            :          -0.00000644 Ha          -0.00017537 eV
  | ---------------------------
  | Total energy                  :        -152.44882625 Ha       -4148.34362771 eV
  | Total energy, T -> 0          :        -152.44883270 Ha       -4148.34380309 eV  <-- do not rely on this value for anything but (periodic) metals
  | Electronic free energy        :        -152.44883914 Ha       -4148.34397846 eV

  Derived energy quantities:
  | Kinetic energy                :         151.97785131 Ha        4135.52774750 eV
  | Electrostatic energy          :        -282.78723517 Ha       -7695.03218801 eV
  | Energy correction for multipole
  | error in Hartree potential    :          -0.02682680 Ha          -0.72999441 eV
  | Sum of eigenvalues per atom                           :        -609.66394682 eV
  | Total energy (T->0) per atom                          :       -1037.08595077 eV  <-- do not rely on this value for anything but (periodic) metals
  | Electronic free energy per atom                       :       -1037.08599461 eV

  Self-consistency convergence accuracy:
  | Change of charge density      :  0.2771E-01
  | Change of sum of eigenvalues  : -0.2792E+01 eV
  | Change of total energy        : -0.6429E-02 eV

  End self-consistency iteration #     4       :  max(cpu_time)    wall_clock(cpu1)
  | Time for this iteration                    :        3.596 s           3.592 s
  | Charge density update                      :        1.872 s           1.867 s
  | Density mixing & preconditioning           :        0.092 s           0.092 s
  | Hartree multipole update                   :        0.012 s           0.008 s
  | Hartree multipole summation                :        0.112 s           0.113 s
  | Integration                                :        0.908 s           0.906 s
  | Solution of K.-S. eqns.                    :        0.596 s           0.603 s
  | Total energy evaluation                    :        0.004 s           0.002 s

  Partial memory accounting:
  | Current value for overall tracked memory usage on task 0  :          18.316 MB
  | Peak value for overall tracked memory usage on task 0     :          67.766 MB after allocating wave
  | Largest tracked array allocation on task 0 so far         :          37.636 MB  when allocating hamiltonian_shell
  Note:  These values currently only include a subset of arrays which are explicitly tracked.
  The "true" memory usage will be greater.
------------------------------------------------------------

------------------------------------------------------------
          Begin self-consistency iteration #    5

  Date     :  20191127, Time     :  201640.247
------------------------------------------------------------
  Evaluating new KS density using the density matrix
  Evaluating density matrix
  Time summed over all CPUs for getting density from density matrix: real work      112.746 s, elapsed      122.592 s
  Integration grid: deviation in total charge (<rho> - N_e) =   6.462386E-12
  Pulay mixing of updated and previous charge densities.

  Evaluating partitioned Hartree potential by multipole expansion.
  | Analytical far-field extrapolation by fixed multipoles:
  | Hartree multipole sum: apparent total charge =   0.189754E-02
  Summing up the Hartree potential.
  Time summed over all CPUs for potential: real work        7.381 s, elapsed        8.237 s
  | RMS charge density error from multipole expansion :   0.123517E-01
  | Average real-space part of the electrostatic potential :      0.44428200 eV

  Integrating Hamiltonian matrix: batch-based integration.
  Time summed over all CPUs for integration: real work       57.141 s, elapsed       61.908 s

  Updating Kohn-Sham eigenvalues and eigenvectors using ELSI and the ELPA eigensolver.
  Finished Cholesky decomposition
  | Time :     0.001 s
  Finished transformation to standard eigenproblem
  | Time :     0.001 s
  Starting LAPACK eigensolver
  Finished solving standard eigenproblem
  | Time :     0.003 s
  Finished back-transformation of eigenvectors
  | Time :     0.000 s

  Obtaining occupation numbers and chemical potential using ELSI.
  | Chemical potential (Fermi level):    -6.81934793eV
  What follows are estimated values for band gap, HOMO, LUMO, etc.
  | They are estimated on a discrete k-point grid and not necessarily exact.
  | For converged numbers, create a DOS and/or band structure plot on a denser k-grid.

  Highest occupied state (VBM) at     -6.82198074 eV (relative to internal zero)
  | Occupation number:      1.05936141
  | K-point:    1472 at    0.333333    0.333333    0.777778 (in units of recip. lattice)

  Lowest unoccupied state (CBM) at    -6.81643817 eV (relative to internal zero)
  | Occupation number:      0.93440782
  | K-point:    1471 at    0.333333    0.333333    0.722222 (in units of recip. lattice)

  ESTIMATED overall HOMO-LUMO gap:      0.00554257 eV between HOMO at k-point 1472 and LUMO at k-point 1471
  | This appears to be an indirect band gap.
  | Smallest direct gap :      0.01877992 eV for k_point 1468 at    0.333333    0.333333    0.722222 (in units of recip. lattice)
  However, this system has fractional occupation numbers. Since we use a finite k-point grid,
  this material is metallic within the approximate finite broadening function (occupation_type)
  applied to determine the occupation numbers.

  Total energy components:
  | Sum of eigenvalues            :         -89.61127540 Ha       -2438.44687032 eV
  | XC energy correction          :         -21.64058009 Ha        -588.87014565 eV
  | XC potential correction       :          27.80525123 Ha         756.61938247 eV
  | Free-atom electrostatic energy:         -66.62161803 Ha       -1812.86646424 eV
  | Hartree energy correction     :          -2.38060045 Ha         -64.77943430 eV
  | Entropy correction            :          -0.00000644 Ha          -0.00017533 eV
  | ---------------------------
  | Total energy                  :        -152.44882274 Ha       -4148.34353203 eV
  | Total energy, T -> 0          :        -152.44882918 Ha       -4148.34370736 eV  <-- do not rely on this value for anything but (periodic) metals
[...]
  |  99.337689      0.001      0.001      0.001     -0.000      0.000     -0.000
  | --------------------------------------------------------------
  | Partitioned atomic C6 coefficients and polarizabilities (a.u.)
  | --------------------------------------------------------------
  | ATOM   1  C   30.550105          8.776443
  | ATOM   2  C   30.550105          8.776443
  | ATOM   3  C   30.510084          8.766859
  | ATOM   4  C   30.510084          8.766859
  | --------------------------------------------------------------
  | Computing MBD@rsSCS energy...
  | --------------------------------------------------------------

  Total energy components:
  | Sum of eigenvalues            :         -89.55825075 Ha       -2437.00399635 eV
  | XC energy correction          :         -21.64177330 Ha        -588.90261439 eV
  | XC potential correction       :          27.80630718 Ha         756.64811632 eV
  | Free-atom electrostatic energy:         -66.63023744 Ha       -1813.10101039 eV
  | Hartree energy correction     :          -2.42533928 Ha         -65.99683960 eV
  | Entropy correction            :          -0.00000654 Ha          -0.00017799 eV
  | ---------------------------
  | Total energy                  :        -152.47052089 Ha       -4148.93396886 eV
  | Total energy, T -> 0          :        -152.47052743 Ha       -4148.93414685 eV  <-- do not rely on this value for anything but (periodic) metals
  | Electronic free energy        :        -152.47053397 Ha       -4148.93432484 eV

  Derived energy quantities:
  | Kinetic energy                :         151.98989836 Ha        4135.85556434 eV
  | Electrostatic energy          :        -282.79741865 Ha       -7695.30929436 eV
  | Energy correction for multipole
  | error in Hartree potential    :          -0.02719019 Ha          -0.73988275 eV
  | Sum of eigenvalues per atom                           :        -609.25099909 eV
  | Total energy (T->0) per atom                          :       -1037.23353671 eV  <-- do not rely on this value for anything but (periodic) metals
  | Electronic free energy per atom                       :       -1037.23358121 eV

  atomic forces [eV/Ang]:
  -----------------------
  atom #    1
   Hellmann-Feynman              :  0.649479E-02 -0.746917E-02 -0.605142E-02
   Ionic forces                  :  0.000000E+00  0.000000E+00  0.000000E+00
   Multipole                     :  0.612860E-04  0.178965E-02  0.104754E-02
   Pulay + GGA                   :  0.352100E-03 -0.768630E-03  0.280765E-02
   Van der Waals                 :  0.716448E-05 -0.110485E-04  0.134090E-03
   ----------------------------------------------------------------
   Total forces(   1)            :  0.691534E-02 -0.645920E-02 -0.206214E-02
  atom #    2
   Hellmann-Feynman              : -0.649479E-02  0.746917E-02  0.605135E-02
   Ionic forces                  :  0.000000E+00  0.000000E+00  0.000000E+00
   Multipole                     : -0.612860E-04 -0.178965E-02 -0.104755E-02
   Pulay + GGA                   : -0.352102E-03  0.768628E-03 -0.280767E-02
   Van der Waals                 : -0.716448E-05  0.110485E-04 -0.134091E-03
   ----------------------------------------------------------------
   Total forces(   2)            : -0.691534E-02  0.645920E-02  0.206204E-02
  atom #    3
   Hellmann-Feynman              : -0.650925E-02  0.754243E-02 -0.276525E-02
   Ionic forces                  :  0.000000E+00  0.000000E+00  0.000000E+00
   Multipole                     : -0.509202E-04 -0.183614E-02 -0.420604E-03
   Pulay + GGA                   : -0.342369E-03  0.705571E-03  0.139308E-02
   Van der Waals                 : -0.749051E-05  0.123247E-04  0.171899E-03
   ----------------------------------------------------------------
   Total forces(   3)            : -0.691003E-02  0.642418E-02 -0.162087E-02
  atom #    4
   Hellmann-Feynman              :  0.650924E-02 -0.754242E-02  0.276532E-02
   Ionic forces                  :  0.000000E+00  0.000000E+00  0.000000E+00
   Multipole                     :  0.509202E-04  0.183614E-02  0.420617E-03
   Pulay + GGA                   :  0.342368E-03 -0.705571E-03 -0.139306E-02
   Van der Waals                 :  0.749051E-05 -0.123248E-04 -0.171898E-03
   ----------------------------------------------------------------
   Total forces(   4)            :  0.691002E-02 -0.642418E-02  0.162098E-02


  Analytical stress tensor components [eV]         xx                  yy                  zz                  xy                  xz                  yz
  -----------------------------------------------------------------------------------------------------------------------------------------------------------
    Nuclear Hellmann-Feynman      :    -0.7127982364E+02   -0.7126861608E+02   -0.2970479943E+02    0.1619177745E-01   -0.4719234540E-06    0.7514200539E-05
    Multipole Hellmann-Feynman    :    -0.1556473457E+03   -0.1555873095E+03   -0.2144541385E+02    0.2932574002E-01   -0.1027218517E-05    0.4222797175E-04
    On-site Multipole corrections :    -0.5501452594E-02   -0.5350442027E-02   -0.5197523497E-02   -0.3577626136E-06   -0.3734647427E-09    0.6562594239E-07
    Strain deriv. of the orbitals :     0.2263930067E+03    0.2263345335E+03    0.5049749304E+02   -0.4568564910E-01    0.1624197304E-05   -0.1530400912E-04
    vdW correction   :     0.5231011220E+00    0.5232247779E+00    0.6297975362E+00    0.8497160401E-04   -0.1007040991E-07    0.7155336372E-07
  -----------------------------------------------------------------------------------------------------------------------------------------------------------
  Sum of all contributions        :    -0.1656295996E-01   -0.3517756165E-02   -0.2812022313E-01   -0.8351778883E-04    0.1146114583E-06    0.3457534248E-04

  +-------------------------------------------------------------------+
  |              Analytical stress tensor - Symmetrized               |
  |                  Cartesian components [eV/A**3]                   |
  +-------------------------------------------------------------------+
  |                x                y                z                |
  |                                                                   |
  |  x        -0.00046267      -0.00000233       0.00000000           |
  |  y        -0.00000233      -0.00009826       0.00000097           |
  |  z         0.00000000       0.00000097      -0.00078551           |
  |                                                                   |
  |  Pressure:       0.00044881   [eV/A**3]                           |
  |                                                                   |
  +-------------------------------------------------------------------+

 * Warning: Stress tensor is anisotropic. Be aware that pressure is an isotropic quantity.

  Timings for VdW correction (Tkatchenko-Scheffler 2009 or later):
  | CPU time:       13.260 s, Wall clock time:       13.246 s.
  Removing unitary transformations (pure translations, rotations) from forces on atoms.
  Atomic forces before filtering:
  | Net force on center of mass :  -0.125096E-07  0.692283E-08  0.707242E-08 eV/A
  Removing unitary transformations (rotations) from forces on lattice.
  Lattice forces before filtering:
  | Net torque relative to origin:  -0.620742E-19  0.124910E-18  0.590053E-17 eV
  Atomic forces after filtering:
  | Net force on center of mass :  -0.278760E-17  0.000000E+00 -0.696899E-18 eV/A
  Lattice forces after filtering:
  | Net torque relative to origin:  -0.620742E-19  0.124910E-18  0.590053E-17 eV

  Energy and forces in a compact form:
  | Total energy uncorrected      :         -0.414893396886250E+04 eV
  | Total energy corrected        :         -0.414893414685229E+04 eV  <-- do not rely on this value for anything but (periodic) metals
  | Electronic free energy        :         -0.414893432484208E+04 eV
  Total atomic forces (unitary forces cleaned) [eV/Ang]:
  |   1          0.691534579335252E-02         -0.645920056305486E-02         -0.206213838790396E-02
  |   2         -0.691533957623083E-02          0.645919617462530E-02          0.206203573051255E-02
  |   3         -0.691003022267649E-02          0.642418119002042E-02         -0.162087095294514E-02
  |   4          0.691002400555480E-02         -0.642417680159086E-02          0.162097361033655E-02

  ------------------------------------ 
  Start decomposition of the XC Energy 
  ------------------------------------ 
  X and C from original XC functional choice 
  Hartree-Fock Energy :          0.000000000 Ha              0.000000000 eV
  X Energy            :        -20.797444100 Ha           -565.927248013 eV
  C Energy            :         -0.844329195 Ha            -22.975366380 eV
  Total XC Energy     :        -21.641773295 Ha           -588.902614394 eV
  ------------------------------------ 
  LDA X and C from self-consistent density 
  X Energy LDA        :        -18.876666831 Ha           -513.660239230 eV
  C Energy LDA        :         -1.593501688 Ha            -43.361387134 eV
  ------------------------------------ 
  End decomposition of the XC Energy 
  ------------------------------------ 

------------------------------------------------------------
  Relaxation / MD: End force evaluation.       :  max(cpu_time)    wall_clock(cpu1)
  | Time for this force evaluation             :       91.320 s          91.507 s

------------------------------------------------------------
  Geometry optimization: Attempting to predict improved coordinates.

  +-------------------------------------------------------------------+
  | Generalized derivatives on lattice vectors [eV/A]                 |
  +-------------------------------------------------------------------+
  |lattice_vector      -0.00675076      -0.00085933       0.00000816  |
  |lattice_vector      -0.00003919      -0.00165068       0.00001622  |
  |lattice_vector       0.00000002       0.00000506      -0.00411908  |
  +-------------------------------------------------------------------+
  | Forces on lattice vectors cleaned from atomic contributions [eV/A]|
  +-------------------------------------------------------------------+
  |lattice_vector       0.00214450       0.00514172      -0.00108938  |
  |lattice_vector       0.00464519      -0.00263147       0.00106291  |
  |lattice_vector       0.00000256      -0.00002247       0.00228100  |
  +-------------------------------------------------------------------+
  | Projected forces for shape relaxation  [eV/A]                     |
  +-------------------------------------------------------------------+
  |lattice_vector       0.00214450      -0.00000000      -0.00000000  |
  |lattice_vector       0.00230076      -0.00398503      -0.00000000  |
  |lattice_vector      -0.00000000      -0.00000000       0.00228100  |
  +-------------------------------------------------------------------+
  Removing unitary transformations (pure translations, rotations) from forces on atoms.
  Atomic forces before filtering:
  | Net force on center of mass :  -0.278760E-17  0.000000E+00 -0.696899E-18 eV/A
  Removing unitary transformations (rotations) from forces on lattice.
  Lattice forces before filtering:
  | Net torque relative to origin:   0.204716E-34  0.000000E+00 -0.737566E-18 eV
  Atomic forces after filtering:
  | Net force on center of mass :  -0.278760E-17  0.000000E+00 -0.696899E-18 eV/A
  Lattice forces after filtering:
  | Net torque relative to origin:   0.204716E-34  0.000000E+00 -0.737566E-18 eV
  || Forces on lattice vectors || =   0.398503E-02 eV/A.
  Net remaining forces (excluding translations, rotations) in present geometry:
  Maximum force component is  0.691535E-02 eV/A.
  Present geometry is converged.

------------------------------------------------------------
  Final atomic structure:
                         x [A]             y [A]             z [A]
  lattice_vector         2.46063758       -0.00000000       -0.00000000
  lattice_vector        -1.23038491        2.13108918        0.00000000
  lattice_vector        -0.00000000       -0.00000000        6.82681726

            atom        -0.00001511       -0.00038172        5.12330108  C
            atom         0.00001511        0.00038172        1.70351617  C
            atom         1.23041736        0.70987532        5.12326272  C
            atom        -0.00016469        1.42121385        1.70355454  C

  Fractional coordinates:
                         L1                L2                L3
       atom_frac        -0.00009571       -0.00017912        0.75046700  C
       atom_frac         0.00009571        0.00017912        0.24953300  C
       atom_frac         0.66660124        0.33310447        0.75046138  C
       atom_frac         0.33339876        0.66689553        0.24953862  C
------------------------------------------------------------

------------------------------------------------------------------------------
  Final output of selected total energy values:

  The following output summarizes some interesting total energy values
  at the end of a run (AFTER all relaxation, molecular dynamics, etc.).

  | Total energy of the DFT / Hartree-Fock s.c.f. calculation      :          -4148.933968862 eV
  | Final zero-broadening corrected energy (caution - metals only) :          -4148.934146852 eV
  | For reference only, the value of 1 Hartree used in FHI-aims is :             27.211384500 eV

  Before relying on these values, please be sure to understand exactly which
  total energy value is referred to by a given number. Different objects may
  all carry the same name 'total energy'. Definitions:

  Total energy of the DFT / Hartree-Fock s.c.f. calculation:
  | Note that this energy does not include ANY quantities calculated after the
  | s.c.f. cycle, in particular not ANY RPA, MP2, etc. many-body perturbation terms.

  Final zero-broadening corrected energy:
  | For metallic systems only, a broadening of the occupation numbers at the Fermi
  | level can be extrapolated back to zero broadening by an electron-gas inspired
  | formula. For all systems that are not real metals, this value can be
  | meaningless and should be avoided.

------------------------------------------------------------------------------
  Methods described in the following list of references were used in this FHI-aims run.
  If you publish the results, please make sure to cite these reference if they apply.
  FHI-aims is an academic code, and for our developers (often, Ph.D. students
  and postdocs), scientific credit in the community is essential.
  Thank you for helping us!

  For any use of FHI-aims, please cite:

    Volker Blum, Ralf Gehrke, Felix Hanke, Paula Havu, Ville Havu,
    Xinguo Ren, Karsten Reuter, and Matthias Scheffler
    'Ab initio molecular simulations with numeric atom-centered orbitals'
    Computer Physics Communications 180, 2175-2196 (2009)
    http://dx.doi.org/10.1016/j.cpc.2009.06.022


  For the analytical stress tensor used in your run, please cite:

    Franz Knuth, Christian Carbogno, Viktor Atalla, Volker Blum, Matthias Scheffler
    'All-electron formalism for total energy strain derivatives and
    stress tensor components for numeric atom-centered orbitals'
    Computer Physics Communications 190, 33-50 (2015).
    http://dx.doi.org/10.1016/j.cpc.2015.01.003


  The scalable eigensolver library ELPA was used in your run.
  ELPA is essential especially for large systems on hundreds or thousands of CPUs.
  For ELPA, please cite:

    Andreas Marek, Volker Blum, Rainer Johanni, Ville Havu, Bruno Lang,
    Thomas Auckenthaler, Alexander Heinecke, Hans-Joachim Bungartz, and Hermann Lederer,
    'The ELPA Library - Scalable Parallel Eigenvalue Solutions
    for Electronic Structure Theory and Computational Science'
    The Journal of Physics: Condensed Matter 26, 213201 (2014).
    http://dx.doi.org/10.1088/0953-8984/26/21/213201


  The ELSI infrastructure was used in your run to solve the Kohn-Sham electronic structure.
  Please check out http://elsi-interchange.org to learn more.
  If scalability is important for your project, please acknowledge ELSI by citing:

    V. W-z. Yu, F. Corsetti, A. Garcia, W. P. Huhn, M. Jacquelin, W. Jia,
    B. Lange, L. Lin, J. Lu, W. Mi, A. Seifitokaldani, A. Vazquez-Mayagoitia,
    C. Yang, H. Yang, and V. Blum
    'ELSI: A unified software interface for Kohn-Sham electronic structure solvers'
    Computer Physics Communications 222, 267-285 (2018).
    http://dx.doi.org/10.1016/j.cpc.2017.09.007


  For the real-space grid partitioning and parallelization used in this calculation, please cite:

    Ville Havu, Volker Blum, Paula Havu, and Matthias Scheffler,
    'Efficient O(N) integration for all-electron electronic structure calculation'
    'using numerically tabulated basis functions'
    Journal of Computational Physics 228, 8367-8379 (2009).
    http://dx.doi.org/10.1016/j.jcp.2009.08.008

  Of course, there are many other important community references, e.g., those cited in the
  above references. Our list is limited to references that describe implementations in the
  FHI-aims code. The reason is purely practical (length of this list) - please credit others as well.

------------------------------------------------------------
          Leaving FHI-aims.
          Date     :  20191127, Time     :  203504.752

          Computational steps:
          | Number of self-consistency cycles          :          125
          | Number of SCF (re)initializations          :           12
          | Number of relaxation steps                 :           11

          Detailed time accounting                     :  max(cpu_time)    wall_clock(cpu1)
          | Total time                                 :     1123.884 s        1123.067 s
          | Preparation time                           :        0.152 s           0.148 s
          | Boundary condition initalization           :        7.024 s           6.991 s
          | Grid partitioning                          :        0.876 s           0.854 s
          | Preloading free-atom quantities on grid    :        2.884 s           2.870 s
          | Free-atom superposition energy             :        0.220 s           0.202 s
          | Total time for integrations                :      130.464 s         129.942 s
          | Total time for solution of K.-S. equations :       78.860 s          78.751 s
          | Total time for EV reorthonormalization     :        1.592 s           1.540 s
          | Total time for density & force components  :      710.240 s         709.399 s
          | Total time for mixing & preconditioning    :        7.504 s           7.348 s
          | Total time for Hartree multipole update    :        1.512 s           1.116 s
          | Total time for Hartree multipole sum       :       22.616 s          22.389 s
          | Total time for total energy evaluation     :        0.508 s           0.277 s
          | Total time for scaled ZORA corrections     :        0.000 s           0.000 s
          | Total time for vdW correction              :      159.256 s         159.115 s

          Partial memory accounting:
          | Residual value for overall tracked memory usage across tasks :           0.000 MB (should be 0.000 MB)
          | Peak values for overall tracked memory usage (after allocating wave_pulay):
          |   Minimum:       98.062 MB (on task 62)
          |   Maximum:      102.412 MB (on task  4)
          |   Average:      100.410 MB
          | Largest tracked array allocation (density_matrix_con):
          |   Minimum:       37.429 MB (on task 62)
          |   Maximum:       41.260 MB (on task 36)
          |   Average:       38.994 MB
          Note:  These values currently only include a subset of arrays which are explicitly tracked.
          The "true" memory usage will be greater.

          Have a nice day.
------------------------------------------------------------
