  MPI-parallelism will be employed.
------------------------------------------------------------
          Invoking FHI-aims ...
          Version 171221_1
          Compiled on 2018/11/06 at 11:18:49 on host headnode.

          When using FHI-aims, please cite the following reference:

          Volker Blum, Ralf Gehrke, Felix Hanke, Paula Havu,
          Ville Havu, Xinguo Ren, Karsten Reuter, and Matthias Scheffler,
          'Ab Initio Molecular Simulations with Numeric Atom-Centered Orbitals',
          Computer Physics Communications 180, 2175-2196 (2009)

          For any questions about FHI-aims, please visit the aimsclub website
          with its forums and wiki. Contributions to both the forums and the
          wiki are warmly encouraged - they are for you, and everyone is welcome there.

------------------------------------------------------------



  Date     :  20191127, Time     :  201622.126
  Time zero on CPU 1             :   0.460000000000000E+00  s.
  Internal wall clock time zero  :           344117782.126  s.

  FHI-aims created a unique identifier for this run for later identification
  aims_uuid : D0B0770D-5DA6-4B2B-ACCB-5E8FC2D1E635

  Using       80 parallel tasks.
  Task        0 on host t030 reporting.
  Task        1 on host t030 reporting.
  Task        2 on host t030 reporting.
  Task        3 on host t030 reporting.
  Task        4 on host t030 reporting.
  Task        5 on host t030 reporting.
  Task        6 on host t030 reporting.
  Task        7 on host t030 reporting.
  Task        8 on host t030 reporting.
  Task        9 on host t030 reporting.
  Task       10 on host t030 reporting.
  Task       11 on host t030 reporting.
  Task       12 on host t030 reporting.
  Task       13 on host t030 reporting.
  Task       14 on host t030 reporting.
  Task       15 on host t030 reporting.
  Task       16 on host t030 reporting.
  Task       17 on host t030 reporting.
  Task       18 on host t030 reporting.
  Task       19 on host t030 reporting.
  Task       20 on host t024 reporting.
  Task       21 on host t024 reporting.
  Task       22 on host t024 reporting.
  Task       23 on host t024 reporting.
  Task       24 on host t024 reporting.
  Task       25 on host t024 reporting.
  Task       26 on host t024 reporting.
  Task       27 on host t024 reporting.
  Task       28 on host t024 reporting.
  Task       29 on host t024 reporting.
  Task       30 on host t024 reporting.
  Task       31 on host t024 reporting.
  Task       32 on host t024 reporting.
  Task       33 on host t024 reporting.
  Task       34 on host t024 reporting.
  Task       35 on host t024 reporting.
  Task       36 on host t024 reporting.
  Task       37 on host t024 reporting.
  Task       38 on host t024 reporting.
  Task       39 on host t024 reporting.
  Task       40 on host t019 reporting.
  Task       41 on host t019 reporting.
  Task       42 on host t019 reporting.
  Task       43 on host t019 reporting.
  Task       44 on host t019 reporting.
  Task       45 on host t019 reporting.
  Task       46 on host t019 reporting.
  Task       47 on host t019 reporting.
  Task       48 on host t019 reporting.
  Task       49 on host t019 reporting.
  Task       50 on host t019 reporting.
  Task       51 on host t019 reporting.
  Task       52 on host t019 reporting.
  Task       53 on host t019 reporting.
  Task       54 on host t019 reporting.
  Task       55 on host t019 reporting.
  Task       56 on host t019 reporting.
  Task       57 on host t019 reporting.
  Task       58 on host t019 reporting.
  Task       59 on host t019 reporting.
  Task       60 on host t018 reporting.
  Task       61 on host t018 reporting.
  Task       62 on host t018 reporting.
  Task       63 on host t018 reporting.
  Task       64 on host t018 reporting.
  Task       65 on host t018 reporting.
  Task       66 on host t018 reporting.
  Task       67 on host t018 reporting.
  Task       68 on host t018 reporting.
  Task       69 on host t018 reporting.
  Task       70 on host t018 reporting.
  Task       71 on host t018 reporting.
  Task       72 on host t018 reporting.
  Task       73 on host t018 reporting.
  Task       74 on host t018 reporting.
  Task       75 on host t018 reporting.
  Task       76 on host t018 reporting.
  Task       77 on host t018 reporting.
  Task       78 on host t018 reporting.
  Task       79 on host t018 reporting.

  Performing system and environment tests:
  | Environment variable OMP_NUM_THREADS correctly set to 1.
  | Stacksize not measured: no C compiler
  | Checking for scalapack...
  | Testing pdtran()...
  | All pdtran() tests passed.

  Obtaining array dimensions for all initial allocations:
  
  -----------------------------------------------------------------------
  Parsing control.in (first pass over file, find array dimensions only).
  The contents of control.in will be repeated verbatim below
  unless switched off by setting 'verbatim_writeout .false.' .
  in the first line of control.in .
  -----------------------------------------------------------------------
  
  #===============================================================================
  # FHI-aims file: ./control.in
  # Created using the Atomic Simulation Environment (ASE)
  # Wed Nov 27 20:14:04 2019
  #
  # List of parameters used to initialize the calculator:
  #     adjust_scf : once 2
  #     k_grid : [18, 18, 1]
  #     xc : pbe
  #     species_dir : /chemsoft/FHI-aims/stable/species_defaults/tight
  #     relativistic : ('atomic_zora', 'scalar')
  #     spin : none
  #===============================================================================
  adjust_scf                         once 2
  ### geometry optimisation section
  relax_geometry    bfgs    1E-2
  relax_unit_cell       fixed_angles
  k_grid                             18 18 1
  xc                                 pbe
  many_body_dispersion
  relativistic                       atomic_zora scalar
  spin                               none
  #===============================================================================
  
  ################################################################################
  #
  #  FHI-aims code project
  # Volker Blum, Fritz Haber Institute Berlin, 2009
  #
  #  Suggested "tight" defaults for C atom (to be pasted into control.in file)
  #
  ################################################################################
    species        C
  #     global species definitions
      nucleus             6
      mass                12.0107
  #
      l_hartree           6
  #
      cut_pot             4.0  2.0  1.0
      basis_dep_cutoff    1e-4
  #
      radial_base         34 7.0
      radial_multiplier   2
      angular_grids specified
        division   0.2187   50
        division   0.4416  110
        division   0.6335  194
        division   0.7727  302
        division   0.8772  434
  #      division   0.9334  590
  #      division   0.9924  770
  #      division   1.0230  974
  #      division   1.5020 1202
  #     outer_grid  974
        outer_grid  434
  ################################################################################
  #
  #  Definition of "minimal" basis
  #
  ################################################################################
  #     valence basis states
      valence      2  s   2.
      valence      2  p   2.
  #     ion occupancy
      ion_occ      2  s   1.
      ion_occ      2  p   1.
  ################################################################################
  #
  #  Suggested additional basis functions. For production calculations,
  #  uncomment them one after another (the most important basis functions are
  #  listed first).
  #
  #  Constructed for dimers: 1.0 A, 1.25 A, 1.5 A, 2.0 A, 3.0 A
  #
  ################################################################################
  #  "First tier" - improvements: -1214.57 meV to -155.61 meV
       hydro 2 p 1.7
       hydro 3 d 6
       hydro 2 s 4.9
  #  "Second tier" - improvements: -67.75 meV to -5.23 meV
       hydro 4 f 9.8
       hydro 3 p 5.2
       hydro 3 s 4.3
       hydro 5 g 14.4
       hydro 3 d 6.2
  #  "Third tier" - improvements: -2.43 meV to -0.60 meV
  #     hydro 2 p 5.6
  #     hydro 2 s 1.4
  #     hydro 3 d 4.9
  #     hydro 4 f 11.2
  #  "Fourth tier" - improvements: -0.39 meV to -0.18 meV
  #     hydro 2 p 2.1
  #     hydro 5 g 16.4
  #     hydro 4 d 13.2
  #     hydro 3 s 13.6
  #     hydro 4 f 17.6
  #  Further basis functions - improvements: -0.08 meV and below
  #     hydro 3 s 2
  #     hydro 3 p 6
  #     hydro 4 d 20
  ################################################################################
  #
  # For methods that use the localized form of the "resolution of identity" for
  # the two-electron Coulomb operator (RI_method LVL), particularly Hartree-Fock and
  # hybrid density functional calculations, the highest accuracy can be obtained by
  # uncommenting the line beginning with "for_aux"  below, thus adding an extra g radial
  # function to the construction of the product basis set for the expansion.
  # See Ref. New J. Phys. 17, 093020 (2015) for more information, particularly Figs. 1 and 6.
  #
  ################################################################################
  #
  # for_aux hydro 5 g 6.0
  
  -----------------------------------------------------------------------
  Completed first pass over input file control.in .
  -----------------------------------------------------------------------
  
  
  -----------------------------------------------------------------------
  Parsing geometry.in (first pass over file, find array dimensions only).
  The contents of geometry.in will be repeated verbatim below
  unless switched off by setting 'verbatim_writeout .false.' .
  in the first line of geometry.in .
  -----------------------------------------------------------------------
  
  #=======================================================
  # FHI-aims file: ./geometry.in
  # Created using the Atomic Simulation Environment (ASE)
  # Wed Nov 27 20:14:04 2019
  #=======================================================
  lattice_vector 2.4600000000000000 0.0000000000000000 0.0000000000000000
  lattice_vector -1.2300000000000000 2.1304224899999999 0.0000000000000000
  lattice_vector 0.0000000000000000 0.0000000000000000 100.0000000000000000
  atom 0.0000000000000000 0.0000000000000000 5.0324999999999998 C
  atom 0.0000000000000000 0.0000000000000000 1.6775000000000000 C
  atom 1.2300000000000000 0.7101408299999999 5.0324999999999998 C
  atom 0.0000000000000000 1.4202816599999999 1.6775000000000000 C
  
  -----------------------------------------------------------------------
  Completed first pass over input file geometry.in .
  -----------------------------------------------------------------------
  

  Basic array size parameters:
  | Number of species                 :        1
  | Number of atoms                   :        4
  | Number of lattice vectors         :        3
  | Max. basis fn. angular momentum   :        4
  | Max. atomic/ionic basis occupied n:        2
  | Max. number of basis fn. types    :        2
  | Max. radial fns per species/type  :        8
  | Max. logarithmic grid size        :     1277
  | Max. radial integration grid size :       69
  | Max. angular integration grid size:      434
  | Max. angular grid division number :        8
  | Radial grid for Hartree potential :     1277
  | Number of spin channels           :        1

------------------------------------------------------------
          Reading file control.in.
------------------------------------------------------------
  S.C.F. convergence parameters will be adjusted in iteration number     2 of the first full s.c.f. cycle only.
  Geometry relaxation: Modified BFGS - TRM (trust radius method, i.e., trusted quadratic extrapolation).
  Convergence accuracy for geometry relaxation: Maximum force <   0.100000E-01 eV/A.
  Found k-point grid:        18        18         1
  XC: Using PBE gradient-corrected functionals.
  Using the default MBD implementation with analytical forces
  Scalar relativistic treatment of kinetic energy: on-site free-atom approximation to ZORA.
  Spin treatment: No spin polarisation.
 
  Reading configuration options for species C                   .
  | Found nuclear charge :   6.0000
  | Found atomic mass :    12.0107000000000      amu
  | Found l_max for Hartree potential  :   6
  | Found cutoff potl. onset [A], width [A], scale factor :    4.00000    2.00000    1.00000
  | Threshold for basis-dependent cutoff potential is   0.100000E-03
  | Found data for basic radial integration grid :    34 points, outermost radius =    7.000 A
  | Found multiplier for basic radial grid :   2
  | Found angular grid specification: user-specified.
  | Specified grid contains     6 separate shells.
  | Check grid settings after all constraints further below.
  | Found free-atom valence shell :  2 s   2.000
  | Found free-atom valence shell :  2 p   2.000
  | No ionic wave fns used. Skipping ion_occ.
  | No ionic wave fns used. Skipping ion_occ.
  | Found hydrogenic basis function :  2 p   1.700
  | Found hydrogenic basis function :  3 d   6.000
  | Found hydrogenic basis function :  2 s   4.900
  | Found hydrogenic basis function :  4 f   9.800
  | Found hydrogenic basis function :  3 p   5.200
  | Found hydrogenic basis function :  3 s   4.300
  | Found hydrogenic basis function :  5 g  14.400
  | Found hydrogenic basis function :  3 d   6.200
  Species C                   : Missing cutoff potential type.
  Defaulting to exp(1/x)/(1-x)^2 type cutoff potential.
  Species C : No 'logarithmic' tag. Using default grid for free atom:
  | Default logarithmic grid data [bohr] : 0.1000E-03 0.1000E+03 0.1012E+01
  Species C : On-site basis accuracy parameter (for Gram-Schmidt orthonormalisation) not specified.
  Using default value basis_acc =  0.1000000E-03.
  Species C                   : Using default innermost maximum threshold i_radial=  2 for radial functions.
  Species C                   : Default cutoff onset for free atom density etc. : 0.40000000E+01 AA.
  Species C                   : Basic radial grid will be enhanced according to radial_multiplier =   2, to contain    69 grid points.
  | MBD: Using the same k-grid sampling as DFT
 
  Finished reading input file 'control.in'. Consistency checks are next.
 
  MPI_IN_PLACE appears to work with this MPI implementation.
  | Keeping use_mpi_in_place .true. (see manual).
  Target number of points in a grid batch is not set. Defaulting to  100
  Method for grid partitioning is not set. Defaulting to parallel hash+maxmin partitioning.
  Batch size limit is not set. Defaulting to    200
  By default, will store active basis functions for each batch.
  If in need of memory, prune_basis_once .false. can be used to disable this option.
  communication_type for Hartree potential was not specified.
  Defaulting to calc_hartree .
  Defaulting to Pulay charge density mixer.
  Pulay mixer: Number of relevant iterations not set.
  Defaulting to    8 iterations.
  Pulay mixer: Number of initial linear mixing iterations not set.
  Defaulting to    0 iterations.
  Work space size for distributed Hartree potential not set.
  Defaulting to   0.200000E+03 MB.
  Mixing parameter for charge density mixing has not been set.
  Using default: charge_mix_param =     0.0500.
  The mixing parameter will be adjusted in iteration number     2 of the first full s.c.f. cycle only.
  Algorithm-dependent basis array size parameters:
  | n_max_pulay                         :        8
 * Notice: The s.c.f. convergence criterion sc_accuracy_rho was not provided.
 * We used to stop in this case, and ask the user to provide reasonable
 * scf convergence criteria. However, this led some users to employ criteria
 * that led to extremely long run times, e.g., for simple relaxation.
 * We now preset a default value for sc_accuracy_rho if it is not set.
 * You may still wish to check if this setting is too tight or too loose for your needs.
 * Based on n_atoms, FHI-aims chose sc_accuracy_rho =  0.100000E-05 .
  Maximum number of self-consistency iterations not provided.
  Presetting  1000 iterations.
  Presetting      1001 iterations before the initial mixing cycle
  is restarted anyway using the sc_init_iter criterion / keyword.
  Presetting a factor      1.000 between actual scf density residual
  and density convergence criterion sc_accuracy_rho below which sc_init_iter
  takes no effect.
 * No s.c.f. convergence criteria (sc_accuracy_*) were provided in control.in.
 * The run will proceed with a reasonable default guess, but please check whether.
 * the s.c.f. cycles seem to take too much or too little time.
  No maximum number of relaxation steps, defaulting to     1000
  Default initial Hessian is Lindh matrix (thres = 15.00) plus  0.200000E+01 eV/A^2 times unity.
  No maximum energy tolerance for TRM/BFGS moves, defaulting to   0.200000E-03
  No harmonic length scale. Defaulting to   0.250000E-01 A.
  No trust radius initializer. Defaulting to   0.200000E+00 A.
  Unit cell relaxation: Restricted relaxation with fixed angles between lattice vectors.
  Unit cell relaxation: Analytical stress will be used.
  Analytical stress will be computed.
  Analytical stress calculation: Only the upper triangle is calculated.
                                 Final output is symmetrized.
  Analytical stress calculation: scf convergence accuracy of stress not set.
                                 Analytical stress self-consistency will not be checked explicitly.
                                 Be sure to set other criteria like sc_accuracy_rho tight enough.
  Force calculation: scf convergence accuracy of forces not set.
  Defaulting to 'sc_accuracy_forces not_checked'.
  Handling of forces: Unphysical translation and rotation will be removed from forces.
  No accuracy limit for integral partition fn. given. Defaulting to  0.1000E-14.
  No threshold value for u(r) in integrations given. Defaulting to  0.1000E-05.
  No occupation type (smearing scheme) given. Defaulting to Gaussian broadening, width =  0.1000E-01 eV.
  The width will be adjusted in iteration number     2 of the first full s.c.f. cycle only.
  S.C.F. convergence parameters will be adjusted in iteration number     2 of the first full s.c.f. cycle only.
  No accuracy for occupation numbers given. Defaulting to  0.1000E-12.
  No threshold value for occupation numbers given. Defaulting to  0.0000E+00.
  No accuracy for fermi level given. Defaulting to  0.1000E-19.
  Maximum # of iterations to find E_F not set. Defaulting to  200.
  Preferred method for the eigenvalue solver ('KS_method') not specified in 'control.in'.
  Defaulting to serial version, 'lapack_fast', since more k-points than CPUs available.
  Will not use alltoall communication since running on < 1024 CPUs.
  Threshold for basis singularities not set.
  Default threshold for basis singularities:  0.1000E-04
  partition_type (choice of integration weights) for integrals was not specified.
  | Using a version of the partition function of Stratmann and coworkers ('stratmann_smoother').
  | At each grid point, the set of atoms used to build the partition table is smoothly restricted to
  | only those atoms whose free-atom density would be non-zero at that grid point.
  Partitioning for Hartree potential was not defined. Using partition_type for integrals.
  | Adjusted default value of keyword multip_moments_threshold to:       0.10000000E-11
  | This value may affect high angular momentum components of the Hartree potential in periodic systems.
  Angular momentum expansion for Kerker preconditioner not set explicitly.
  | Using default value of   0
  No explicit requirement for turning off preconditioner.
  | By default, it will be turned off when the charge convergence reaches
  | sc_accuracy_rho  =   0.100000E-05
  No special mixing parameter while Kerker preconditioner is on.
  Using default: charge_mix_param =     0.0500.
  No q(lm)/r^(l+1) cutoff set for long-range Hartree potential.
  | Using default value of  0.100000E-09 .
  | Verify using the multipole_threshold keyword.
  Defaulting to new monopole extrapolation.
  Density update method: automatic selection selected.
  Using density matrix based charge density update.
  Using density matrix based charge density update.
  Using packed matrix style: index .
  Geometry relaxation: A file "geometry.in.next_step" is written out by default after each step.
  | This file contains the geometry of the current relaxation step as well as
  | the current Hessian matrix needed to restart the relaxation algorithm.
  | If you do not want part or all of this information, use the keywords
  | "write_restart_geometry" or "hessian_to_restart_geometry" to switch the output off.
  Defaulting to use time-reversal symmetry for k-point grid.
------------------------------------------------------------


------------------------------------------------------------
          Reading geometry description geometry.in.
------------------------------------------------------------
  Input structure read successfully.
  The structure contains        4 atoms,  and a total of         24.000 electrons.

  Input geometry:
  | Unit cell:
  |        2.46000000        0.00000000        0.00000000
  |       -1.23000000        2.13042249        0.00000000
  |        0.00000000        0.00000000      100.00000000
  | Atomic structure:
  |       Atom                x [A]            y [A]            z [A]
  |    1: Species C             0.00000000        0.00000000        5.03250000
  |    2: Species C             0.00000000        0.00000000        1.67750000
  |    3: Species C             1.23000000        0.71014083        5.03250000
  |    4: Species C             0.00000000        1.42028166        1.67750000

  Lattice parameters for 3D lattice (in Angstroms) :     2.460000    2.460000  100.000000
  Angle(s) between unit vectors (in degrees)      :    90.000000   90.000000  120.000000

  |

  | The smallest distance between any two atoms is         1.42028166 AA.
  |
  | The first atom of this pair is atom number                      4 .
  | The second atom of this pair is atom number                     2 .
  | Wigner-Seitz cell of the first atom image           0     1     0 .
  | (The Wigner-Seitz cell of the second atom is 0 0 0  by definition.)

  Quantities derived from the lattice vectors:
  | Reciprocal lattice vector 1:  2.554140  1.474634  0.000000
  | Reciprocal lattice vector 2: -0.000000  2.949267  0.000000
  | Reciprocal lattice vector 3:  0.000000  0.000000  0.062832
  | Unit cell volume                               :   0.524084E+03  A^3

  Range separation radius for Ewald summation (hartree_convergence_parameter):      5.00000000 bohr.

  Fractional coordinates:
                         L1                L2                L3
       atom_frac         0.00000000        0.00000000        0.05032500  C
       atom_frac         0.00000000        0.00000000        0.01677500  C
       atom_frac         0.66666667        0.33333333        0.05032500  C
       atom_frac         0.33333333        0.66666667        0.01677500  C

  Number of empty states per atom not set in control.in - providing a guess from actual geometry.
  | Total number of empty states used during s.c.f. cycle:       12
  If you use a very high smearing, use empty_states (per atom!) in control.in to increase this value.

  Structure-dependent array size parameters: 
  | Maximum number of distinct radial functions  :       11
  | Maximum number of basis functions            :      156
  | Number of Kohn-Sham states (occupied + empty):       24
------------------------------------------------------------

------------------------------------------------------------
          Preparing all fixed parts of the calculation.
------------------------------------------------------------
  Determining machine precision:
    2.225073858507201E-308
  Setting up grids for atomic and cluster calculations.

  Creating wave function, potential, and density for free atoms.

  Species: C

  List of occupied orbitals and eigenvalues:
    n    l              occ      energy [Ha]    energy [eV]
    1    0           2.0000       -10.049212      -273.4530
    2    0           2.0000        -0.504761       -13.7352
    2    1           2.0000        -0.193631        -5.2690

  Creating fixed part of basis set: Ionic, confined, hydrogenic.
 
  C                    hydrogenic:
 
  List of hydrogenic basis orbitals: 
    n    l      effective z      eigenvalue [eV]  inner max. [A]     outer max. [A]     outer radius [A]   
    2    1         1.700000        -9.8152           1.245706           1.245706           5.401630
    3    2         6.000000       -54.4226           0.792453           0.792453           4.178599
    2    0         4.900000       -81.6681           0.082559           0.562749           3.353238
    4    3         9.800000       -81.6681           0.863254           0.863254           4.028125
    3    1         5.200000       -40.8774           0.305389           1.215618           4.898362
    3    0         4.300000       -27.9508           0.091041           1.610311           5.401630
    5    4        14.400000      -112.8510           0.917666           0.917666           3.883070
    3    2         6.200000       -58.1113           0.763917           0.763917           4.077671
 

  Adding cutoff potential to free-atom effective potential.
  Creating atomic-like basis functions for current effective potential.

  Species C                   :

  List of atomic basis orbitals and eigenvalues:
    n    l      energy [Ha]    energy [eV]    outer radius [A]
    1    0       -10.049212      -273.4530       1.934409
    2    0        -0.504761       -13.7352       5.271162
    2    1        -0.193631        -5.2690       5.401630

  Assembling full basis from fixed parts.
  | Species C :   atomic orbital   1 s accepted.
  | Species C :    hydro orbital   2 s accepted.
  | Species C :   atomic orbital   2 s accepted.
  | Species C :    hydro orbital   3 s accepted.
  | Species C :    hydro orbital   3 p accepted.
  | Species C :   atomic orbital   2 p accepted.
  | Species C :    hydro orbital   2 p accepted.
  | Species C :    hydro orbital   3 d accepted.
  | Species C :    hydro orbital   3 d accepted.
  | Species C :    hydro orbital   4 f accepted.
  | Species C :    hydro orbital   5 g accepted.
 
  Basis size parameters after reduction:
  | Total number of radial functions:       11
  | Total number of basis functions :      156
 
  Per-task memory consumption for arrays in subroutine allocate_ext:
  |           3.600012MB.
  Testing on-site integration grid accuracy.
  |  Species  Function  <phi|h_atom|phi> (log., in eV)  <phi|h_atom|phi> (rad., in eV)
           1        1               -273.4529725981               -273.4529710451
           1        2                -10.7721037329                -10.7721022102
           1        3                 17.6044132585                 17.6044162052
           1        4                 53.7706460564                 53.7706913681
           1        5                 15.0973290351                 15.0973256011
           1        6                  3.8545134677                  3.8545724657
           1        7                 12.1156992586                 12.1182024423
           1        8                 29.4352039288                 29.4352041805
           1        9                 54.8741144697                 54.8740268719
           1       10                 59.3556032036                 59.3556031370
           1       11                 93.4551837140                 93.4551837996

  Preparing densities etc. for the partition functions (integrals / Hartree potential).

  Preparations completed.
  max(cpu_time)          :      0.168 s.
  Wall clock time (cpu1) :      0.869 s.
------------------------------------------------------------

------------------------------------------------------------
          Begin self-consistency loop: Initialization.

          Date     :  20191127, Time     :  201623.392
------------------------------------------------------------

  Initializing index lists of integration centers etc. from given atomic structure:
  Mapping all atomic coordinates to central unit cell.

  Initializing the k-points
          Using symmetry for reducing the k-points
  | k-points reduced from:      324 to      164
  | Number of k-points                             :       164
  The eigenvectors in the calculations are COMPLEX.
  | K-points in task   0:         2
  | K-points in task   1:         3
  | K-points in task   2:         3
  | K-points in task   3:         3
  | K-points in task   4:         3
  | K-points in task   5:         2
  | K-points in task   6:         2
  | K-points in task   7:         2
  | K-points in task   8:         2
  | K-points in task   9:         2
  | K-points in task  10:         2
  | K-points in task  11:         2
  | K-points in task  12:         2
  | K-points in task  13:         2
  | K-points in task  14:         2
  | K-points in task  15:         2
  | K-points in task  16:         2
  | K-points in task  17:         2
  | K-points in task  18:         2
  | K-points in task  19:         2
  | K-points in task  20:         2
  | K-points in task  21:         2
  | K-points in task  22:         2
  | K-points in task  23:         2
  | K-points in task  24:         2
  | K-points in task  25:         2
  | K-points in task  26:         2
  | K-points in task  27:         2
  | K-points in task  28:         2
  | K-points in task  29:         2
  | K-points in task  30:         2
  | K-points in task  31:         2
  | K-points in task  32:         2
  | K-points in task  33:         2
  | K-points in task  34:         2
  | K-points in task  35:         2
  | K-points in task  36:         2
  | K-points in task  37:         2
  | K-points in task  38:         2
  | K-points in task  39:         2
  | K-points in task  40:         2
  | K-points in task  41:         2
  | K-points in task  42:         2
  | K-points in task  43:         2
  | K-points in task  44:         2
  | K-points in task  45:         2
  | K-points in task  46:         2
  | K-points in task  47:         2
  | K-points in task  48:         2
  | K-points in task  49:         2
  | K-points in task  50:         2
  | K-points in task  51:         2
  | K-points in task  52:         2
  | K-points in task  53:         2
  | K-points in task  54:         2
  | K-points in task  55:         2
  | K-points in task  56:         2
  | K-points in task  57:         2
  | K-points in task  58:         2
  | K-points in task  59:         2
  | K-points in task  60:         2
  | K-points in task  61:         2
  | K-points in task  62:         2
  | K-points in task  63:         2
  | K-points in task  64:         2
  | K-points in task  65:         2
  | K-points in task  66:         2
  | K-points in task  67:         2
  | K-points in task  68:         2
  | K-points in task  69:         2
  | K-points in task  70:         2
  | K-points in task  71:         2
  | K-points in task  72:         2
  | K-points in task  73:         2
  | K-points in task  74:         2
  | K-points in task  75:         2
  | K-points in task  76:         2
  | K-points in task  77:         2
  | K-points in task  78:         2
  | K-points in task  79:         2
  | Number of basis functions in the Hamiltonian integrals :      3518
  | Number of basis functions in a single unit cell        :       156
  | Number of centers in hartree potential         :       840
  | Number of centers in hartree multipole         :       434
  | Number of centers in electron density summation:       354
  | Number of centers in basis integrals           :       368
  | Number of centers in integrals                 :       142
  | Number of centers in hamiltonian               :       354
  | Consuming        246 KiB for k_phase.
  | Number of super-cells (origin) [n_cells]                     :        1083
  | Number of super-cells (after PM_index) [n_cells]             :          96
  | Number of super-cells in hamiltonian [n_cells_in_hamiltonian]:          96
  | Size of matrix packed + index [n_hamiltonian_matrix_size] :      560239
  Initializing relaxation algorithms.
  Partitioning the integration grid into batches with parallel hashing+maxmin method.
  | Number of batches:      831
  | Maximal batch size:     197
  | Minimal batch size:      11
  | Average batch size:      87.018
  | Standard deviation of batch sizes:      23.534

  Integration load balanced across    80 MPI tasks.
  Work distribution over tasks is as follows:
  Task     0 has        930 integration points.
  Task     1 has        920 integration points.
  Task     2 has        928 integration points.
  Task     3 has       1005 integration points.
  Task     4 has        913 integration points.
  Task     5 has        884 integration points.
  Task     6 has        893 integration points.
  Task     7 has        922 integration points.
  Task     8 has        916 integration points.
  Task     9 has        924 integration points.
  Task    10 has        882 integration points.
  Task    11 has        871 integration points.
  Task    12 has        935 integration points.
  Task    13 has        884 integration points.
  Task    14 has        872 integration points.
  Task    15 has        881 integration points.
  Task    16 has        946 integration points.
  Task    17 has        895 integration points.
  Task    18 has        921 integration points.
  Task    19 has        886 integration points.
  Task    20 has        874 integration points.
  Task    21 has        884 integration points.
  Task    22 has        868 integration points.
  Task    23 has        923 integration points.
  Task    24 has        895 integration points.
  Task    25 has        886 integration points.
  Task    26 has        874 integration points.
  Task    27 has        919 integration points.
  Task    28 has        894 integration points.
  Task    29 has        871 integration points.
  Task    30 has        897 integration points.
  Task    31 has        862 integration points.
  Task    32 has        871 integration points.
  Task    33 has        926 integration points.
  Task    34 has        882 integration points.
  Task    35 has        934 integration points.
  Task    36 has        921 integration points.
  Task    37 has        996 integration points.
  Task    38 has        882 integration points.
  Task    39 has        899 integration points.
  Task    40 has        884 integration points.
  Task    41 has        883 integration points.
  Task    42 has        883 integration points.
  Task    43 has        871 integration points.
  Task    44 has        913 integration points.
  Task    45 has        924 integration points.
  Task    46 has        866 integration points.
  Task    47 has        881 integration points.
  Task    48 has        938 integration points.
  Task    49 has        926 integration points.
  Task    50 has        893 integration points.
  Task    51 has        884 integration points.
  Task    52 has        885 integration points.
  Task    53 has        932 integration points.
  Task    54 has        896 integration points.
  Task    55 has        941 integration points.
  Task    56 has        863 integration points.
  Task    57 has        938 integration points.
  Task    58 has        999 integration points.
  Task    59 has        936 integration points.
  Task    60 has        945 integration points.
  Task    61 has        874 integration points.
  Task    62 has        858 integration points.
  Task    63 has        930 integration points.
  Task    64 has        942 integration points.
  Task    65 has        909 integration points.
  Task    66 has        887 integration points.
  Task    67 has        930 integration points.
  Task    68 has        874 integration points.
  Task    69 has        912 integration points.
  Task    70 has        874 integration points.
  Task    71 has        892 integration points.
  Task    72 has        864 integration points.
  Task    73 has        940 integration points.
  Task    74 has        886 integration points.
  Task    75 has        869 integration points.
  Task    76 has        876 integration points.
  Task    77 has        879 integration points.
  Task    78 has        876 integration points.
  Task    79 has        993 integration points.
  Initializing partition tables, free-atom densities, potentials, etc. across the integration grid (initialize_grid_storage).
  | initialize_grid_storage: Actual outermost partition radius vs. multipole_radius_free
  | (-- VB: in principle, multipole_radius_free should be larger, hence this output)
  | Species        1: Confinement radius =              6.000000000000000 AA, multipole_radius_free =              6.029870734432609 AA.
  | Species        1: outer_partition_radius set to              6.029870734432609 AA .
  | Original list of interatomic distances with         368 x        368 entries is created.
  | Net number of integration points:    72312
  | of which are non-zero points    :    52178
  | Numerical average free-atom electrostatic potential    :     -0.94215542 eV
  Renormalizing the initial density to the exact electron count on the 3D integration grid.
  | Initial density: Formal number of electrons (from input files) :      24.0000000000
  | Integrated number of electrons on 3D grid     :      24.0000522724
  | Charge integration error                      :       0.0000522724
  | Normalization factor for density and gradient :       0.9999978220
  Obtaining max. number of non-zero basis functions in each batch (get_n_compute_maxes).
  | Maximal number of non-zero basis functions:     1870 in task     0
  | Maximal number of non-zero basis functions:     1904 in task     1
  | Maximal number of non-zero basis functions:     1877 in task     2
  | Maximal number of non-zero basis functions:     1933 in task     3
  | Maximal number of non-zero basis functions:     1857 in task     4
  | Maximal number of non-zero basis functions:     1960 in task     5
  | Maximal number of non-zero basis functions:     1873 in task     6
  | Maximal number of non-zero basis functions:     1848 in task     7
  | Maximal number of non-zero basis functions:     1902 in task     8
  | Maximal number of non-zero basis functions:     1980 in task     9
  | Maximal number of non-zero basis functions:     1924 in task    10
  | Maximal number of non-zero basis functions:     1904 in task    11
  | Maximal number of non-zero basis functions:     1971 in task    12
  | Maximal number of non-zero basis functions:     1835 in task    13
  | Maximal number of non-zero basis functions:     1859 in task    14
  | Maximal number of non-zero basis functions:     1885 in task    15
  | Maximal number of non-zero basis functions:     1827 in task    16
  | Maximal number of non-zero basis functions:     1903 in task    17
  | Maximal number of non-zero basis functions:     1873 in task    18
  | Maximal number of non-zero basis functions:     1869 in task    19
  | Maximal number of non-zero basis functions:     1942 in task    20
  | Maximal number of non-zero basis functions:     1833 in task    21
  | Maximal number of non-zero basis functions:     1902 in task    22
  | Maximal number of non-zero basis functions:     2022 in task    23
  | Maximal number of non-zero basis functions:     1894 in task    24
  | Maximal number of non-zero basis functions:     1911 in task    25
  | Maximal number of non-zero basis functions:     1842 in task    26
  | Maximal number of non-zero basis functions:     1957 in task    27
  | Maximal number of non-zero basis functions:     1826 in task    28
  | Maximal number of non-zero basis functions:     1923 in task    29
  | Maximal number of non-zero basis functions:     1931 in task    30
  | Maximal number of non-zero basis functions:     1926 in task    31
  | Maximal number of non-zero basis functions:     2001 in task    32
  | Maximal number of non-zero basis functions:     1897 in task    33
  | Maximal number of non-zero basis functions:     1844 in task    34
  | Maximal number of non-zero basis functions:     1865 in task    35
  | Maximal number of non-zero basis functions:     1921 in task    36
  | Maximal number of non-zero basis functions:     1920 in task    37
  | Maximal number of non-zero basis functions:     1917 in task    38
  | Maximal number of non-zero basis functions:     1799 in task    39
  | Maximal number of non-zero basis functions:     1882 in task    40
  | Maximal number of non-zero basis functions:     1809 in task    41
  | Maximal number of non-zero basis functions:     1856 in task    42
  | Maximal number of non-zero basis functions:     1841 in task    43
  | Maximal number of non-zero basis functions:     1910 in task    44
  | Maximal number of non-zero basis functions:     1790 in task    45
  | Maximal number of non-zero basis functions:     1920 in task    46
  | Maximal number of non-zero basis functions:     1867 in task    47
  | Maximal number of non-zero basis functions:     1819 in task    48
  | Maximal number of non-zero basis functions:     1979 in task    49
  | Maximal number of non-zero basis functions:     1857 in task    50
  | Maximal number of non-zero basis functions:     1853 in task    51
  | Maximal number of non-zero basis functions:     1817 in task    52
  | Maximal number of non-zero basis functions:     1899 in task    53
  | Maximal number of non-zero basis functions:     1887 in task    54
  | Maximal number of non-zero basis functions:     1952 in task    55
  | Maximal number of non-zero basis functions:     1844 in task    56
  | Maximal number of non-zero basis functions:     1924 in task    57
  | Maximal number of non-zero basis functions:     1892 in task    58
  | Maximal number of non-zero basis functions:     1880 in task    59
  | Maximal number of non-zero basis functions:     1969 in task    60
  | Maximal number of non-zero basis functions:     1908 in task    61
  | Maximal number of non-zero basis functions:     1833 in task    62
  | Maximal number of non-zero basis functions:     1857 in task    63
  | Maximal number of non-zero basis functions:     1936 in task    64
  | Maximal number of non-zero basis functions:     1852 in task    65
  | Maximal number of non-zero basis functions:     1825 in task    66
  | Maximal number of non-zero basis functions:     1815 in task    67
  | Maximal number of non-zero basis functions:     1911 in task    68
  | Maximal number of non-zero basis functions:     1851 in task    69
  | Maximal number of non-zero basis functions:     1912 in task    70
  | Maximal number of non-zero basis functions:     1906 in task    71
  | Maximal number of non-zero basis functions:     1899 in task    72
  | Maximal number of non-zero basis functions:     1940 in task    73
  | Maximal number of non-zero basis functions:     1829 in task    74
  | Maximal number of non-zero basis functions:     1858 in task    75
  | Maximal number of non-zero basis functions:     1941 in task    76
  | Maximal number of non-zero basis functions:     1923 in task    77
  | Maximal number of non-zero basis functions:     1968 in task    78
  | Maximal number of non-zero basis functions:     1843 in task    79
  Allocating        0.120 MB for KS_eigenvector_complex
  Integrating Hamiltonian matrix: batch-based integration.
  Time summed over all CPUs for integration: real work       29.725 s, elapsed       34.180 s
  Integrating overlap matrix.
  Time summed over all CPUs for integration: real work       21.669 s, elapsed       24.128 s
  Decreasing sparse matrix size:
   Tolerance:  9.999999824516700E-014
   Hamiltonian matrix
  | Array has   465998 nonzero elements out of   560239 elements
  | Sparsity factor is 0.168
   Overlap matrix
  | Array has   433609 nonzero elements out of   560239 elements
  | Sparsity factor is 0.226
  New size of hamiltonian matrix:      467459

  Updating Kohn-Sham eigenvalues and eigenvectors using ELSI and the ELPA eigensolver.
  Overlap matrix is nonsingular
  | Lowest eigenvalue of overlap  :  0.88E-04
  | Highest eigenvalue of overlap :  0.69E+01
  Finished singularity check of overlap matrix
  | Time :     0.003 s
  Finished Cholesky decomposition
  | Time :     0.001 s
  Finished transformation to standard eigenproblem
  | Time :     0.001 s
  Starting LAPACK eigensolver
  Finished solving standard eigenproblem
  | Time :     0.003 s
  Finished back-transformation of eigenvectors
  | Time :     0.000 s

  Obtaining occupation numbers and chemical potential using ELSI.
  | Chemical potential (Fermi level):    -8.25696772eV
  Writing Kohn-Sham eigenvalues.
  K-point:       1 at    0.000000    0.000000    0.000000 (in units of recip. lattice)

  State    Occupation    Eigenvalue [Ha]    Eigenvalue [eV]
      1       2.00000         -10.166576         -276.64662
      2       2.00000         -10.166576         -276.64661
      3       2.00000         -10.165618         -276.62054
      4       2.00000         -10.165618         -276.62054
      5       2.00000          -1.049630          -28.56189
      6       2.00000          -1.045638          -28.45327
      7       2.00000          -0.587160          -15.97744
      8       2.00000          -0.558713          -15.20337
      9       2.00000          -0.468750          -12.75532
     10       2.00000          -0.468749          -12.75532
     11       2.00000          -0.468518          -12.74902
     12       2.00000          -0.468518          -12.74902
     13       0.00000          -0.043299           -1.17824
     14       0.00000          -0.030087           -0.81870
     15       0.00000          -0.030086           -0.81868
     16       0.00000          -0.029427           -0.80074
     17       0.00000          -0.029426           -0.80071
     18       0.00000          -0.009044           -0.24610
     19       0.00000           0.071544            1.94680
     20       0.00000           0.095001            2.58511
     21       0.00000           0.097901            2.66401
     22       0.00000           0.134037            3.64733
     23       0.00000           0.136678            3.71920
     24       0.00000           0.417635           11.36442

  What follows are estimated values for band gap, HOMO, LUMO, etc.
  | They are estimated on a discrete k-point grid and not necessarily exact.
  | For converged numbers, create a DOS and/or band structure plot on a denser k-grid.

  Highest occupied state (VBM) at     -8.25696917 eV (relative to internal zero)
  | Occupation number:      1.00016399
  | K-point:      83 at    0.333333    0.333333    0.000000 (in units of recip. lattice)

  Lowest unoccupied state (CBM) at    -8.25696626 eV (relative to internal zero)
  | Occupation number:      0.99983601
  | K-point:      83 at    0.333333    0.333333    0.000000 (in units of recip. lattice)

  ESTIMATED overall HOMO-LUMO gap:      0.00000291 eV between HOMO at k-point 83 and LUMO at k-point 83
  | This appears to be a direct band gap.
  However, this system has fractional occupation numbers. Since we use a finite k-point grid,
  this material is metallic within the approximate finite broadening function (occupation_type)
  applied to determine the occupation numbers.
  Calculating total energy contributions from superposition of free atom densities.

  Total energy components:
  | Sum of eigenvalues            :         -92.00140213 Ha       -2503.48552790 eV
  | XC energy correction          :         -21.40663878 Ha        -582.50427881 eV
  | XC potential correction       :          27.50181259 Ha         748.36239678 eV
  | Free-atom electrostatic energy:         -66.63085857 Ha       -1813.11791221 eV
  | Hartree energy correction     :           0.00000000 Ha           0.00000000 eV
  | Entropy correction            :          -0.00000128 Ha          -0.00003483 eV
  | ---------------------------
  | Total energy                  :        -152.53708690 Ha       -4150.74532215 eV
  | Total energy, T -> 0          :        -152.53708818 Ha       -4150.74535698 eV  <-- do not rely on this value for anything but (periodic) metals
  | Electronic free energy        :        -152.53708946 Ha       -4150.74539180 eV

  Derived energy quantities:
  | Kinetic energy                :         151.89359220 Ha        4133.23494047 eV
  | Electrostatic energy          :        -283.02404032 Ha       -7701.47598381 eV
  | Energy correction for multipole
  | error in Hartree potential    :           0.00000000 Ha           0.00000000 eV
  | Sum of eigenvalues per atom                           :        -625.87138198 eV
  | Total energy (T->0) per atom                          :       -1037.68633924 eV  <-- do not rely on this value for anything but (periodic) metals
  | Electronic free energy per atom                       :       -1037.68634795 eV
  Initialize hartree_potential_storage
  Max. number of atoms included in rho_multipole:            4

  End scf initialization - timings             :  max(cpu_time)    wall_clock(cpu1)
  | Time for scf. initialization               :        1.828 s           1.823 s
  | Boundary condition initialization          :        0.724 s           0.722 s
  | Relaxation initialization                  :        0.008 s           0.006 s
  | Integration                                :        0.784 s           0.783 s
  | Solution of K.-S. eqns.                    :        0.096 s           0.099 s
  | Grid partitioning                          :        0.072 s           0.066 s
  | Preloading free-atom quantities on grid    :        0.012 s           0.008 s
  | Free-atom superposition energy             :        0.016 s           0.012 s
  | Total energy evaluation                    :        0.004 s           0.000 s

  Partial memory accounting:
  | Current value for overall tracked memory usage on task 0  :           9.469 MB
  | Peak value for overall tracked memory usage on task 0     :          48.186 MB after allocating wave
  | Largest tracked array allocation on task 0 so far         :          27.975 MB  when allocating hamiltonian_shell
  Note:  These values currently only include a subset of arrays which are explicitly tracked.
  The "true" memory usage will be greater.
------------------------------------------------------------

------------------------------------------------------------
          Begin self-consistency iteration #    1

  Date     :  20191127, Time     :  201625.215
------------------------------------------------------------
  Evaluating new KS density using the density matrix
  Evaluating density matrix
  Time summed over all CPUs for getting density from density matrix: real work       59.633 s, elapsed       65.593 s
  Integration grid: deviation in total charge (<rho> - N_e) =   1.008971E-12
  Pulay mixing of updated and previous charge densities.

  Evaluating partitioned Hartree potential by multipole expansion.
  | Analytical far-field extrapolation by fixed multipoles:
  | Hartree multipole sum: apparent total charge =   0.537483E-03
  Summing up the Hartree potential.
  | Estimated reciprocal-space cutoff momentum G_max:         1.90186217 bohr^-1 .
  | Reciprocal lattice points for long-range Hartree potential:     504
  Time summed over all CPUs for potential: real work        7.580 s, elapsed        8.517 s
  | RMS charge density error from multipole expansion :   0.553248E-03
  | Average real-space part of the electrostatic potential :      0.00054267 eV

  Integrating Hamiltonian matrix: batch-based integration.
  Time summed over all CPUs for integration: real work       27.618 s, elapsed       30.830 s

  Updating Kohn-Sham eigenvalues and eigenvectors using ELSI and the ELPA eigensolver.
  Finished Cholesky decomposition
  | Time :     0.000 s
  Finished transformation to standard eigenproblem
  | Time :     0.001 s
  Starting LAPACK eigensolver
  Finished solving standard eigenproblem
  | Time :     0.003 s
  Finished back-transformation of eigenvectors
  | Time :     0.000 s

  Obtaining occupation numbers and chemical potential using ELSI.
  | Chemical potential (Fermi level):    -8.14848477eV
  Writing Kohn-Sham eigenvalues.
  K-point:       1 at    0.000000    0.000000    0.000000 (in units of recip. lattice)

  State    Occupation    Eigenvalue [Ha]    Eigenvalue [eV]
      1       2.00000         -10.156799         -276.38057
      2       2.00000         -10.156799         -276.38056
      3       2.00000         -10.155839         -276.35443
      4       2.00000         -10.155839         -276.35443
      5       2.00000          -1.044292          -28.41662
      6       2.00000          -1.040222          -28.30587
      7       2.00000          -0.584083          -15.89372
      8       2.00000          -0.555208          -15.10799
      9       2.00000          -0.461720          -12.56404
     10       2.00000          -0.461720          -12.56404
     11       2.00000          -0.461483          -12.55760
     12       2.00000          -0.461483          -12.55760
     13       0.00000          -0.043910           -1.19484
     14       0.00000          -0.024079           -0.65521
     15       0.00000          -0.024078           -0.65518
     16       0.00000          -0.023405           -0.63689
     17       0.00000          -0.023404           -0.63687
     18       0.00000          -0.011005           -0.29946
     19       0.00000           0.070742            1.92498
     20       0.00000           0.100328            2.73006
     21       0.00000           0.103264            2.80995
     22       0.00000           0.139603            3.79880
     23       0.00000           0.142301            3.87221
     24       0.00000           0.417948           11.37295

  What follows are estimated values for band gap, HOMO, LUMO, etc.
  | They are estimated on a discrete k-point grid and not necessarily exact.
  | For converged numbers, create a DOS and/or band structure plot on a denser k-grid.

  Highest occupied state (VBM) at     -8.14848617 eV (relative to internal zero)
  | Occupation number:      1.00015855
  | K-point:      83 at    0.333333    0.333333    0.000000 (in units of recip. lattice)

  Lowest unoccupied state (CBM) at    -8.14848336 eV (relative to internal zero)
  | Occupation number:      0.99984145
  | K-point:      83 at    0.333333    0.333333    0.000000 (in units of recip. lattice)

  ESTIMATED overall HOMO-LUMO gap:      0.00000281 eV between HOMO at k-point 83 and LUMO at k-point 83
  | This appears to be a direct band gap.
  However, this system has fractional occupation numbers. Since we use a finite k-point grid,
  this material is metallic within the approximate finite broadening function (occupation_type)
  applied to determine the occupation numbers.

  Total energy components:
  | Sum of eigenvalues            :         -91.83509758 Ha       -2498.96015089 eV
  | XC energy correction          :         -21.41984600 Ha        -582.86366546 eV
  | XC potential correction       :          27.51890809 Ha         748.82758907 eV
  | Free-atom electrostatic energy:         -66.63085857 Ha       -1813.11791221 eV
  | Hartree energy correction     :          -0.16010237 Ha          -4.35660725 eV
  | Entropy correction            :          -0.00000128 Ha          -0.00003483 eV
  | ---------------------------
  | Total energy                  :        -152.52699644 Ha       -4150.47074672 eV
  | Total energy, T -> 0          :        -152.52699772 Ha       -4150.47078155 eV  <-- do not rely on this value for anything but (periodic) metals
  | Electronic free energy        :        -152.52699900 Ha       -4150.47081638 eV

  Derived energy quantities:
  | Kinetic energy                :         151.93851011 Ha        4134.45721887 eV
  | Electrostatic energy          :        -283.04566054 Ha       -7702.06430014 eV
  | Energy correction for multipole
  | error in Hartree potential    :          -0.00117263 Ha          -0.03190899 eV
  | Sum of eigenvalues per atom                           :        -624.74003772 eV
  | Total energy (T->0) per atom                          :       -1037.61769539 eV  <-- do not rely on this value for anything but (periodic) metals
  | Electronic free energy per atom                       :       -1037.61770409 eV

  Self-consistency convergence accuracy:
  | Change of charge density      :  0.3313E+00
  | Change of sum of eigenvalues  :  0.4525E+01 eV
  | Change of total energy        :  0.2746E+00 eV

  End self-consistency iteration #     1       :  max(cpu_time)    wall_clock(cpu1)
  | Time for this iteration                    :        1.424 s           1.419 s
  | Charge density update                      :        0.844 s           0.839 s
  | Density mixing & preconditioning           :        0.032 s           0.031 s
  | Hartree multipole update                   :        0.004 s           0.002 s
  | Hartree multipole summation                :        0.124 s           0.117 s
  | Integration                                :        0.400 s           0.395 s
  | Solution of K.-S. eqns.                    :        0.036 s           0.035 s
  | Total energy evaluation                    :        0.004 s           0.000 s

  Partial memory accounting:
  | Current value for overall tracked memory usage on task 0  :           9.469 MB
  | Peak value for overall tracked memory usage on task 0     :          55.127 MB after allocating gradient_basis_wave
  | Largest tracked array allocation on task 0 so far         :          27.975 MB  when allocating hamiltonian_shell
  Note:  These values currently only include a subset of arrays which are explicitly tracked.
  The "true" memory usage will be greater.
------------------------------------------------------------

------------------------------------------------------------
          Begin self-consistency iteration #    2

  Date     :  20191127, Time     :  201626.636
------------------------------------------------------------
  Evaluating new KS density using the density matrix
  Evaluating density matrix
  Time summed over all CPUs for getting density from density matrix: real work       58.924 s, elapsed       64.684 s
  Integration grid: deviation in total charge (<rho> - N_e) =   1.094236E-12
  Pulay mixing of updated and previous charge densities.

  Evaluating partitioned Hartree potential by multipole expansion.
  | Analytical far-field extrapolation by fixed multipoles:
  | Hartree multipole sum: apparent total charge =   0.844512E-02
  Summing up the Hartree potential.
  Time summed over all CPUs for potential: real work        8.929 s, elapsed        9.879 s
  | RMS charge density error from multipole expansion :   0.989586E-02
  | Average real-space part of the electrostatic potential :      0.01022171 eV

  Integrating Hamiltonian matrix: batch-based integration.
  Time summed over all CPUs for integration: real work       27.608 s, elapsed       30.835 s

  Updating Kohn-Sham eigenvalues and eigenvectors using ELSI and the ELPA eigensolver.
  Finished Cholesky decomposition
  | Time :     0.001 s
  Finished transformation to standard eigenproblem
  | Time :     0.001 s
  Starting LAPACK eigensolver
  Finished solving standard eigenproblem
  | Time :     0.003 s
  Finished back-transformation of eigenvectors
  | Time :     0.000 s

  Obtaining occupation numbers and chemical potential using ELSI.
  | Chemical potential (Fermi level):    -6.12736752eV
  What follows are estimated values for band gap, HOMO, LUMO, etc.
  | They are estimated on a discrete k-point grid and not necessarily exact.
  | For converged numbers, create a DOS and/or band structure plot on a denser k-grid.

  Highest occupied state (VBM) at     -6.12736763 eV (relative to internal zero)
  | Occupation number:      1.00001227
  | K-point:      83 at    0.333333    0.333333    0.000000 (in units of recip. lattice)

  Lowest unoccupied state (CBM) at    -6.12736741 eV (relative to internal zero)
  | Occupation number:      0.99998773
  | K-point:      83 at    0.333333    0.333333    0.000000 (in units of recip. lattice)

  ESTIMATED overall HOMO-LUMO gap:      0.00000022 eV between HOMO at k-point 83 and LUMO at k-point 83
  | This appears to be a direct band gap.
  However, this system has fractional occupation numbers. Since we use a finite k-point grid,
  this material is metallic within the approximate finite broadening function (occupation_type)
  applied to determine the occupation numbers.

  Checking to see if s.c.f. parameters should be adjusted.
  Adjusted the Pulay mixing parameter (charge_mix_param) for an expected low-gap system. New value:   0.020000 .
  Adjusted the occupation broadening width for an expected low-gap system. New value:      0.05000000 eV.

  Total energy components:
  | Sum of eigenvalues            :         -88.83960085 Ha       -2417.44853753 eV
  | XC energy correction          :         -21.67768092 Ha        -589.87971072 eV
  | XC potential correction       :          27.85017681 Ha         757.84186952 eV
  | Free-atom electrostatic energy:         -66.63085857 Ha       -1813.11791221 eV
  | Hartree energy correction     :          -3.15201771 Ha         -85.77076596 eV
  | Entropy correction            :          -0.00000640 Ha          -0.00017413 eV
  | ---------------------------
  | Total energy                  :        -152.44998125 Ha       -4148.37505689 eV
  | Total energy, T -> 0          :        -152.44998765 Ha       -4148.37523102 eV  <-- do not rely on this value for anything but (periodic) metals
  | Electronic free energy        :        -152.44999405 Ha       -4148.37540516 eV

  Derived energy quantities:
  | Kinetic energy                :         152.51417412 Ha        4150.12183366 eV
  | Electrostatic energy          :        -283.28647445 Ha       -7708.61717983 eV
  | Energy correction for multipole
  | error in Hartree potential    :          -0.02088212 Ha          -0.56823148 eV
  | Sum of eigenvalues per atom                           :        -604.36213438 eV
  | Total energy (T->0) per atom                          :       -1037.09380776 eV  <-- do not rely on this value for anything but (periodic) metals
  | Electronic free energy per atom                       :       -1037.09385129 eV

  Self-consistency convergence accuracy:
  | Change of charge density      :  0.3128E+00
  | Change of sum of eigenvalues  :  0.8151E+02 eV
  | Change of total energy        :  0.2096E+01 eV

  End self-consistency iteration #     2       :  max(cpu_time)    wall_clock(cpu1)
  | Time for this iteration                    :        1.428 s           1.423 s
  | Charge density update                      :        0.832 s           0.826 s
  | Density mixing & preconditioning           :        0.032 s           0.031 s
  | Hartree multipole update                   :        0.004 s           0.002 s
  | Hartree multipole summation                :        0.140 s           0.135 s
  | Integration                                :        0.396 s           0.394 s
  | Solution of K.-S. eqns.                    :        0.036 s           0.035 s
  | Total energy evaluation                    :        0.004 s           0.000 s

  Partial memory accounting:
  | Current value for overall tracked memory usage on task 0  :           9.470 MB
  | Peak value for overall tracked memory usage on task 0     :          55.127 MB after allocating gradient_basis_wave
  | Largest tracked array allocation on task 0 so far         :          27.975 MB  when allocating hamiltonian_shell
  Note:  These values currently only include a subset of arrays which are explicitly tracked.
  The "true" memory usage will be greater.
------------------------------------------------------------

------------------------------------------------------------
          Begin self-consistency iteration #    3

  Date     :  20191127, Time     :  201628.060
------------------------------------------------------------
  Evaluating new KS density using the density matrix
  Evaluating density matrix
  Time summed over all CPUs for getting density from density matrix: real work       58.915 s, elapsed       64.681 s
  Integration grid: deviation in total charge (<rho> - N_e) =   1.040945E-12
  Pulay mixing of updated and previous charge densities.

  Evaluating partitioned Hartree potential by multipole expansion.
  | Analytical far-field extrapolation by fixed multipoles:
  | Hartree multipole sum: apparent total charge =   0.707020E-02
  Summing up the Hartree potential.
  Time summed over all CPUs for potential: real work        8.927 s, elapsed        9.872 s
  | RMS charge density error from multipole expansion :   0.100581E-01
  | Average real-space part of the electrostatic potential :      0.01136316 eV

  Integrating Hamiltonian matrix: batch-based integration.
  Time summed over all CPUs for integration: real work       27.619 s, elapsed       30.820 s

  Updating Kohn-Sham eigenvalues and eigenvectors using ELSI and the ELPA eigensolver.
  Finished Cholesky decomposition
  | Time :     0.000 s
  Finished transformation to standard eigenproblem
  | Time :     0.001 s
  Starting LAPACK eigensolver
  Finished solving standard eigenproblem
  | Time :     0.003 s
  Finished back-transformation of eigenvectors
  | Time :     0.000 s

  Obtaining occupation numbers and chemical potential using ELSI.
  | Chemical potential (Fermi level):    -5.99911204eV
  What follows are estimated values for band gap, HOMO, LUMO, etc.
  | They are estimated on a discrete k-point grid and not necessarily exact.
  | For converged numbers, create a DOS and/or band structure plot on a denser k-grid.

  Highest occupied state (VBM) at     -5.99911223 eV (relative to internal zero)
  | Occupation number:      1.00000424
  | K-point:      83 at    0.333333    0.333333    0.000000 (in units of recip. lattice)

  Lowest unoccupied state (CBM) at    -5.99911186 eV (relative to internal zero)
  | Occupation number:      0.99999576
  | K-point:      83 at    0.333333    0.333333    0.000000 (in units of recip. lattice)

  ESTIMATED overall HOMO-LUMO gap:      0.00000038 eV between HOMO at k-point 83 and LUMO at k-point 83
  | This appears to be a direct band gap.
  However, this system has fractional occupation numbers. Since we use a finite k-point grid,
  this material is metallic within the approximate finite broadening function (occupation_type)
  applied to determine the occupation numbers.

  Total energy components:
  | Sum of eigenvalues            :         -88.80485224 Ha       -2416.50297981 eV
  | XC energy correction          :         -21.65925678 Ha        -589.37836418 eV
  | XC potential correction       :          27.82704618 Ha         757.21245313 eV
  | Free-atom electrostatic energy:         -66.63085857 Ha       -1813.11791221 eV
  | Hartree energy correction     :          -3.18187049 Ha         -86.58310145 eV
  | Entropy correction            :          -0.00000640 Ha          -0.00017413 eV
  | ---------------------------
  | Total energy                  :        -152.44979191 Ha       -4148.36990452 eV
  | Total energy, T -> 0          :        -152.44979831 Ha       -4148.37007865 eV  <-- do not rely on this value for anything but (periodic) metals
  | Electronic free energy        :        -152.44980471 Ha       -4148.37025278 eV

  Derived energy quantities:
  | Kinetic energy                :         152.37494010 Ha        4146.33308326 eV
  | Electrostatic energy          :        -283.16547523 Ha       -7705.32462360 eV
  | Energy correction for multipole
  | error in Hartree potential    :          -0.02117918 Ha          -0.57631494 eV
  | Sum of eigenvalues per atom                           :        -604.12574495 eV
  | Total energy (T->0) per atom                          :       -1037.09251966 eV  <-- do not rely on this value for anything but (periodic) metals
  | Electronic free energy per atom                       :       -1037.09256320 eV

  Self-consistency convergence accuracy:
  | Change of charge density      :  0.3749E-01
  | Change of sum of eigenvalues  :  0.9456E+00 eV
  | Change of total energy        :  0.5152E-02 eV

  End self-consistency iteration #     3       :  max(cpu_time)    wall_clock(cpu1)
  | Time for this iteration                    :        1.428 s           1.423 s
  | Charge density update                      :        0.828 s           0.826 s
  | Density mixing & preconditioning           :        0.032 s           0.031 s
  | Hartree multipole update                   :        0.004 s           0.002 s
  | Hartree multipole summation                :        0.140 s           0.135 s
  | Integration                                :        0.396 s           0.394 s
  | Solution of K.-S. eqns.                    :        0.036 s           0.034 s
  | Total energy evaluation                    :        0.004 s           0.001 s

  Partial memory accounting:
  | Current value for overall tracked memory usage on task 0  :           9.470 MB
  | Peak value for overall tracked memory usage on task 0     :          55.128 MB after allocating gradient_basis_wave
  | Largest tracked array allocation on task 0 so far         :          27.975 MB  when allocating hamiltonian_shell
  Note:  These values currently only include a subset of arrays which are explicitly tracked.
  The "true" memory usage will be greater.
------------------------------------------------------------

------------------------------------------------------------
          Begin self-consistency iteration #    4

  Date     :  20191127, Time     :  201629.483
------------------------------------------------------------
  Evaluating new KS density using the density matrix
  Evaluating density matrix
  Time summed over all CPUs for getting density from density matrix: real work       58.918 s, elapsed       64.677 s
  Integration grid: deviation in total charge (<rho> - N_e) =   9.805490E-13
  Pulay mixing of updated and previous charge densities.

  Evaluating partitioned Hartree potential by multipole expansion.
  | Analytical far-field extrapolation by fixed multipoles:
  | Hartree multipole sum: apparent total charge =   0.353151E-02
  Summing up the Hartree potential.
  Time summed over all CPUs for potential: real work        8.968 s, elapsed        9.920 s
  | RMS charge density error from multipole expansion :   0.117859E-01
  | Average real-space part of the electrostatic potential :      0.01632917 eV

  Integrating Hamiltonian matrix: batch-based integration.
  Time summed over all CPUs for integration: real work       27.604 s, elapsed       30.834 s

  Updating Kohn-Sham eigenvalues and eigenvectors using ELSI and the ELPA eigensolver.
  Finished Cholesky decomposition
  | Time :     0.001 s
  Finished transformation to standard eigenproblem
  | Time :     0.001 s
  Starting LAPACK eigensolver
  Finished solving standard eigenproblem
  | Time :     0.003 s
  Finished back-transformation of eigenvectors
  | Time :     0.000 s

  Obtaining occupation numbers and chemical potential using ELSI.
  | Chemical potential (Fermi level):    -5.31156867eV
  What follows are estimated values for band gap, HOMO, LUMO, etc.
  | They are estimated on a discrete k-point grid and not necessarily exact.
  | For converged numbers, create a DOS and/or band structure plot on a denser k-grid.

  Highest occupied state (VBM) at     -5.31156954 eV (relative to internal zero)
  | Occupation number:      1.00001967
  | K-point:      83 at    0.333333    0.333333    0.000000 (in units of recip. lattice)

  Lowest unoccupied state (CBM) at    -5.31156780 eV (relative to internal zero)
  | Occupation number:      0.99998033
  | K-point:      83 at    0.333333    0.333333    0.000000 (in units of recip. lattice)

  ESTIMATED overall HOMO-LUMO gap:      0.00000174 eV between HOMO at k-point 83 and LUMO at k-point 83
  | This appears to be a direct band gap.
  However, this system has fractional occupation numbers. Since we use a finite k-point grid,
  this material is metallic within the approximate finite broadening function (occupation_type)
  applied to determine the occupation numbers.

  Total energy components:
  | Sum of eigenvalues            :         -88.29708676 Ha       -2402.68597817 eV
  | XC energy correction          :         -21.63709869 Ha        -588.77541183 eV
  | XC potential correction       :          27.79993698 Ha         756.47477426 eV
  | Free-atom electrostatic energy:         -66.63085857 Ha       -1813.11791221 eV
  | Hartree energy correction     :          -3.68480579 Ha        -100.26866717 eV
  | Entropy correction            :          -0.00000640 Ha          -0.00017413 eV
  | ---------------------------
  | Total energy                  :        -152.44991283 Ha       -4148.37319511 eV
  | Total energy, T -> 0          :        -152.44991923 Ha       -4148.37336924 eV  <-- do not rely on this value for anything but (periodic) metals
  | Electronic free energy        :        -152.44992563 Ha       -4148.37354337 eV

  Derived energy quantities:
  | Kinetic energy                :         151.97687996 Ha        4135.50131581 eV
  | Electrostatic energy          :        -282.78969411 Ha       -7695.09909909 eV
  | Energy correction for multipole
  | error in Hartree potential    :          -0.02464027 Ha          -0.67049592 eV
  | Sum of eigenvalues per atom                           :        -600.67149454 eV
  | Total energy (T->0) per atom                          :       -1037.09334231 eV  <-- do not rely on this value for anything but (periodic) metals
  | Electronic free energy per atom                       :       -1037.09338584 eV

  Self-consistency convergence accuracy:
  | Change of charge density      :  0.2986E-01
  | Change of sum of eigenvalues  :  0.1382E+02 eV
  | Change of total energy        : -0.3291E-02 eV

  End self-consistency iteration #     4       :  max(cpu_time)    wall_clock(cpu1)
  | Time for this iteration                    :        1.432 s           1.424 s
  | Charge density update                      :        0.828 s           0.826 s
  | Density mixing & preconditioning           :        0.032 s           0.031 s
  | Hartree multipole update                   :        0.004 s           0.002 s
  | Hartree multipole summation                :        0.140 s           0.135 s
  | Integration                                :        0.396 s           0.396 s
  | Solution of K.-S. eqns.                    :        0.036 s           0.034 s
  | Total energy evaluation                    :        0.004 s           0.000 s

  Partial memory accounting:
  | Current value for overall tracked memory usage on task 0  :           9.470 MB
  | Peak value for overall tracked memory usage on task 0     :          55.128 MB after allocating gradient_basis_wave
  | Largest tracked array allocation on task 0 so far         :          27.975 MB  when allocating hamiltonian_shell
  Note:  These values currently only include a subset of arrays which are explicitly tracked.
  The "true" memory usage will be greater.
------------------------------------------------------------

------------------------------------------------------------
          Begin self-consistency iteration #    5

  Date     :  20191127, Time     :  201630.908
------------------------------------------------------------
  Evaluating new KS density using the density matrix
  Evaluating density matrix
  Time summed over all CPUs for getting density from density matrix: real work       58.915 s, elapsed       64.695 s
  Integration grid: deviation in total charge (<rho> - N_e) =   1.008971E-12
  Pulay mixing of updated and previous charge densities.

  Evaluating partitioned Hartree potential by multipole expansion.
  | Analytical far-field extrapolation by fixed multipoles:
  | Hartree multipole sum: apparent total charge =   0.262173E-02
  Summing up the Hartree potential.
  Time summed over all CPUs for potential: real work        8.980 s, elapsed        9.933 s
  | RMS charge density error from multipole expansion :   0.119038E-01
  | Average real-space part of the electrostatic potential :      0.01693093 eV

  Integrating Hamiltonian matrix: batch-based integration.
  Time summed over all CPUs for integration: real work       27.619 s, elapsed       30.829 s

  Updating Kohn-Sham eigenvalues and eigenvectors using ELSI and the ELPA eigensolver.
  Finished Cholesky decomposition
  | Time :     0.000 s
  Finished transformation to standard eigenproblem
  | Time :     0.001 s
  Starting LAPACK eigensolver
  Finished solving standard eigenproblem
  | Time :     0.003 s
  Finished back-transformation of eigenvectors
  | Time :     0.000 s

  Obtaining occupation numbers and chemical potential using ELSI.
  | Chemical potential (Fermi level):    -4.99552038eV
  What follows are estimated values for band gap, HOMO, LUMO, etc.
  | They are estimated on a discrete k-point grid and not necessarily exact.
  | For converged numbers, create a DOS and/or band structure plot on a denser k-grid.

  Highest occupied state (VBM) at     -4.99552122 eV (relative to internal zero)
  | Occupation number:      1.00001890
  | K-point:      83 at    0.333333    0.333333    0.000000 (in units of recip. lattice)

  Lowest unoccupied state (CBM) at    -4.99551955 eV (relative to internal zero)
  | Occupation number:      0.99998110
  | K-point:      83 at    0.333333    0.333333    0.000000 (in units of recip. lattice)

  ESTIMATED overall HOMO-LUMO gap:      0.00000168 eV between HOMO at k-point 83 and LUMO at k-point 83
  | This appears to be a direct band gap.
  However, this system has fractional occupation numbers. Since we use a finite k-point grid,
  this material is metallic within the approximate finite broadening function (occupation_type)
  applied to determine the occupation numbers.

  Total energy components:
  | Sum of eigenvalues            :         -88.00652823 Ha       -2394.77947822 eV
  | XC energy correction          :         -21.64065422 Ha        -588.87216277 eV
  | XC potential correction       :          27.80443197 Ha         756.59708925 eV
  | Free-atom electrostatic energy:         -66.63085857 Ha       -1813.11791221 eV
  | Hartree energy correction     :          -3.97624743 Ha        -108.19919762 eV
  | Entropy correction            :          -0.00000640 Ha          -0.00017413 eV
  | ---------------------------
  | Total energy                  :        -152.44985648 Ha       -4148.37166157 eV
  | Total energy, T -> 0          :        -152.44986288 Ha       -4148.37183570 eV  <-- do not rely on this value for anything but (periodic) metals
  | Electronic free energy        :        -152.44986928 Ha       -4148.37200983 eV

  Derived energy quantities:
  | Kinetic energy                :         151.98986521 Ha        4135.85466247 eV
  | Electrostatic energy          :        -282.79906747 Ha       -7695.35416127 eV
  | Energy correction for multipole
  | error in Hartree potential    :          -0.02489288 Ha          -0.67736961 eV
  | Sum of eigenvalues per atom                           :        -598.69486955 eV
  | Total energy (T->0) per atom                          :       -1037.09295893 eV  <-- do not rely on this value for anything but (periodic) metals
  | Electronic free energy per atom                       :       -1037.09300246 eV

  Self-consistency convergence accuracy:
[...]
  |  99.337689      0.001      0.001      0.001      0.000     -0.000      0.000
  | --------------------------------------------------------------
  | Partitioned atomic C6 coefficients and polarizabilities (a.u.)
  | --------------------------------------------------------------
  | ATOM   1  C   31.115970          8.936593
  | ATOM   2  C   31.115970          8.936593
  | ATOM   3  C   31.098487          8.932739
  | ATOM   4  C   31.098487          8.932739
  | --------------------------------------------------------------
  | Computing MBD@rsSCS energy...
  | --------------------------------------------------------------

  Total energy components:
  | Sum of eigenvalues            :         -87.52254631 Ha       -2381.60966011 eV
  | XC energy correction          :         -21.63587876 Ha        -588.74221588 eV
  | XC potential correction       :          27.79785099 Ha         756.41801166 eV
  | Free-atom electrostatic energy:         -66.64834504 Ha       -1813.59374312 eV
  | Hartree energy correction     :          -4.44125239 Ha        -120.85262633 eV
  | Entropy correction            :          -0.00000640 Ha          -0.00017413 eV
  | ---------------------------
  | Total energy                  :        -152.46648249 Ha       -4148.82407853 eV
  | Total energy, T -> 0          :        -152.46648889 Ha       -4148.82425266 eV  <-- do not rely on this value for anything but (periodic) metals
  | Electronic free energy        :        -152.46649529 Ha       -4148.82442679 eV

  Derived energy quantities:
  | Kinetic energy                :         151.97109660 Ha        4135.34394249 eV
  | Electrostatic energy          :        -282.78538934 Ha       -7694.98196039 eV
  | Energy correction for multipole
  | error in Hartree potential    :          -0.02489393 Ha          -0.67739836 eV
  | Sum of eigenvalues per atom                           :        -595.40241503 eV
  | Total energy (T->0) per atom                          :       -1037.20606316 eV  <-- do not rely on this value for anything but (periodic) metals
  | Electronic free energy per atom                       :       -1037.20610670 eV

  atomic forces [eV/Ang]:
  -----------------------
  atom #    1
   Hellmann-Feynman              : -0.785394E-02  0.340641E-02  0.255192E+00
   Ionic forces                  :  0.000000E+00  0.000000E+00  0.000000E+00
   Multipole                     : -0.343614E-04  0.104793E-02 -0.464124E-01
   Pulay + GGA                   : -0.834993E-03  0.323456E-03 -0.167053E+00
   Van der Waals                 :  0.133708E-03 -0.789703E-04 -0.418054E-01
   ----------------------------------------------------------------
   Total forces(   1)            : -0.858958E-02  0.469883E-02 -0.789128E-04
  atom #    2
   Hellmann-Feynman              :  0.785391E-02 -0.340641E-02 -0.255192E+00
   Ionic forces                  :  0.000000E+00  0.000000E+00  0.000000E+00
   Multipole                     :  0.343614E-04 -0.104793E-02  0.464124E-01
   Pulay + GGA                   :  0.834992E-03 -0.323452E-03  0.167053E+00
   Van der Waals                 : -0.133708E-03  0.789703E-04  0.418054E-01
   ----------------------------------------------------------------
   Total forces(   2)            :  0.858956E-02 -0.469883E-02  0.789275E-04
  atom #    3
   Hellmann-Feynman              :  0.782589E-02 -0.345769E-02  0.166581E+00
   Ionic forces                  :  0.000000E+00  0.000000E+00  0.000000E+00
   Multipole                     :  0.352894E-04 -0.102689E-02 -0.198773E-01
   Pulay + GGA                   :  0.849463E-03 -0.285271E-03 -0.103741E+00
   Van der Waals                 : -0.133780E-03  0.790263E-04 -0.426921E-01
   ----------------------------------------------------------------
   Total forces(   3)            :  0.857686E-02 -0.469083E-02  0.270351E-03
  atom #    4
   Hellmann-Feynman              : -0.782587E-02  0.345768E-02 -0.166581E+00
   Ionic forces                  :  0.000000E+00  0.000000E+00  0.000000E+00
   Multipole                     : -0.352894E-04  0.102689E-02  0.198773E-01
   Pulay + GGA                   : -0.849461E-03  0.285276E-03  0.103741E+00
   Van der Waals                 :  0.133780E-03 -0.790263E-04  0.426921E-01
   ----------------------------------------------------------------
   Total forces(   4)            : -0.857684E-02  0.469083E-02 -0.270332E-03


  Analytical stress tensor components [eV]         xx                  yy                  zz                  xy                  xz                  yz
  -----------------------------------------------------------------------------------------------------------------------------------------------------------
    Nuclear Hellmann-Feynman      :    -0.3851515255E+02   -0.3854993515E+02    0.1108183243E+01   -0.2027264816E-01    0.1617772021E-04    0.8531577101E-04
    Multipole Hellmann-Feynman    :    -0.1327858276E+03   -0.1328235838E+03   -0.2532621868E+01   -0.3732568192E-01    0.7803308692E-05    0.1646324778E-03
    On-site Multipole corrections :    -0.5461743471E-02   -0.5333305655E-02   -0.5230206784E-02    0.5062487211E-06    0.6179934566E-07    0.1717194875E-06
    Strain deriv. of the orbitals :     0.1708651568E+03    0.1709348561E+03    0.1136335639E+01    0.5342776349E-01    0.1178448054E-04   -0.1519646782E-03
    vdW correction   :     0.4585507576E+00    0.4596841069E+00    0.2906850761E+00    0.9827462210E-03    0.5248349341E-06   -0.3538930697E-06
  -----------------------------------------------------------------------------------------------------------------------------------------------------------
  Sum of all contributions        :     0.1726571634E-01    0.1568794700E-01   -0.2648116383E-02   -0.3187314126E-02    0.3635214372E-04    0.9780139712E-04

  +-------------------------------------------------------------------+
  |              Analytical stress tensor - Symmetrized               |
  |                  Cartesian components [eV/A**3]                   |
  +-------------------------------------------------------------------+
  |                x                y                z                |
  |                                                                   |
  |  x         0.00003289      -0.00000607       0.00000007           |
  |  y        -0.00000607       0.00002989       0.00000019           |
  |  z         0.00000007       0.00000019      -0.00000504           |
  |                                                                   |
  |  Pressure:      -0.00001925   [eV/A**3]                           |
  |                                                                   |
  +-------------------------------------------------------------------+

 * Warning: Stress tensor is anisotropic. Be aware that pressure is an isotropic quantity.

  Timings for VdW correction (Tkatchenko-Scheffler 2009 or later):
  | CPU time:        0.668 s, Wall clock time:        0.665 s.
  Removing unitary transformations (pure translations, rotations) from forces on atoms.
  Atomic forces before filtering:
  | Net force on center of mass :  -0.235190E-08  0.586451E-09  0.337722E-07 eV/A
  Removing unitary transformations (rotations) from forces on lattice.
  Lattice forces before filtering:
  | Net torque relative to origin:  -0.689923E-20 -0.500216E-20 -0.716702E-42 eV
  Atomic forces after filtering:
  | Net force on center of mass :   0.278760E-17  0.696899E-18  0.000000E+00 eV/A
  Lattice forces after filtering:
  | Net torque relative to origin:  -0.689923E-20 -0.500216E-20 -0.716702E-42 eV

  Energy and forces in a compact form:
  | Total energy uncorrected      :         -0.414882407852991E+04 eV
  | Total energy corrected        :         -0.414882425265893E+04 eV  <-- do not rely on this value for anything but (periodic) metals
  | Electronic free energy        :         -0.414882442678794E+04 eV
  Total atomic forces (unitary forces cleaned) [eV/Ang]:
  |   1         -0.858958269871377E-02          0.469882942298313E-02         -0.789212918317131E-04
  |   2          0.858955856990751E-02         -0.469882553974519E-02          0.789190643602143E-04
  |   3          0.857686321725769E-02         -0.469082903319002E-02          0.270342789751649E-03
  |   4         -0.857683908845143E-02          0.469082514995209E-02         -0.270340562280150E-03

  ------------------------------------ 
  Start decomposition of the XC Energy 
  ------------------------------------ 
  X and C from original XC functional choice 
  Hartree-Fock Energy :          0.000000000 Ha              0.000000000 eV
  X Energy            :        -20.794261826 Ha           -565.840653947 eV
  C Energy            :         -0.841616932 Ha            -22.901561929 eV
  Total XC Energy     :        -21.635878758 Ha           -588.742215876 eV
  ------------------------------------ 
  LDA X and C from self-consistent density 
  X Energy LDA        :        -18.869043800 Ha           -513.452805986 eV
  C Energy LDA        :         -1.592649514 Ha            -43.338198289 eV
  ------------------------------------ 
  End decomposition of the XC Energy 
  ------------------------------------ 

------------------------------------------------------------
  Relaxation / MD: End force evaluation.       :  max(cpu_time)    wall_clock(cpu1)
  | Time for this force evaluation             :       37.000 s          36.996 s

------------------------------------------------------------
  Geometry optimization: Attempting to predict improved coordinates.

  +-------------------------------------------------------------------+
  | Generalized derivatives on lattice vectors [eV/A]                 |
  +-------------------------------------------------------------------+
  |lattice_vector       0.00626570       0.00238439       0.00003770  |
  |lattice_vector      -0.00149492       0.00735801       0.00004587  |
  |lattice_vector       0.00000036       0.00000098      -0.00002648  |
  +-------------------------------------------------------------------+
  | Forces on lattice vectors cleaned from atomic contributions [eV/A]|
  +-------------------------------------------------------------------+
  |lattice_vector      -0.00054706      -0.00551201       0.00014249  |
  |lattice_vector      -0.00422376      -0.00423036      -0.00022606  |
  |lattice_vector      -0.00000000      -0.00000121       0.00001990  |
  +-------------------------------------------------------------------+
  | Projected forces for shape relaxation  [eV/A]                     |
  +-------------------------------------------------------------------+
  |lattice_vector      -0.00054706      -0.00000000       0.00000000  |
  |lattice_vector       0.00077586      -0.00134383      -0.00000000  |
  |lattice_vector       0.00000000       0.00000000       0.00001990  |
  +-------------------------------------------------------------------+
  Removing unitary transformations (pure translations, rotations) from forces on atoms.
  Atomic forces before filtering:
  | Net force on center of mass :   0.278760E-17  0.696899E-18  0.000000E+00 eV/A
  Removing unitary transformations (rotations) from forces on lattice.
  Lattice forces before filtering:
  | Net torque relative to origin:   0.799671E-37  0.000000E+00  0.000000E+00 eV
  Atomic forces after filtering:
  | Net force on center of mass :   0.278760E-17  0.696899E-18  0.000000E+00 eV/A
  Lattice forces after filtering:
  | Net torque relative to origin:   0.799671E-37  0.000000E+00  0.000000E+00 eV
  || Forces on lattice vectors || =   0.134383E-02 eV/A.
  Net remaining forces (excluding translations, rotations) in present geometry:
  Maximum force component is  0.858958E-02 eV/A.
  Present geometry is converged.

------------------------------------------------------------
  Final atomic structure:
                         x [A]             y [A]             z [A]
  lattice_vector         2.46189840        0.00000000       -0.00000000
  lattice_vector        -1.23096403        2.13209225        0.00000000
  lattice_vector         0.00000000        0.00000000      100.00000729

            atom         0.00055857       -0.00032952        5.07423769  C
            atom        -0.00055857        0.00032952        1.63576231  C
            atom         1.23134142        0.71046431        5.07466998  C
            atom        -0.00040705        1.42162793        1.63533002  C

  Fractional coordinates:
                         L1                L2                L3
       atom_frac         0.00014961       -0.00015455        0.05074237  C
       atom_frac        -0.00014961        0.00015455        0.01635762  C
       atom_frac         0.66677332        0.33322400        0.05074670  C
       atom_frac         0.33322668        0.66677600        0.01635330  C
------------------------------------------------------------

------------------------------------------------------------------------------
  Final output of selected total energy values:

  The following output summarizes some interesting total energy values
  at the end of a run (AFTER all relaxation, molecular dynamics, etc.).

  | Total energy of the DFT / Hartree-Fock s.c.f. calculation      :          -4148.824078530 eV
  | Final zero-broadening corrected energy (caution - metals only) :          -4148.824252659 eV
  | For reference only, the value of 1 Hartree used in FHI-aims is :             27.211384500 eV

  Before relying on these values, please be sure to understand exactly which
  total energy value is referred to by a given number. Different objects may
  all carry the same name 'total energy'. Definitions:

  Total energy of the DFT / Hartree-Fock s.c.f. calculation:
  | Note that this energy does not include ANY quantities calculated after the
  | s.c.f. cycle, in particular not ANY RPA, MP2, etc. many-body perturbation terms.

  Final zero-broadening corrected energy:
  | For metallic systems only, a broadening of the occupation numbers at the Fermi
  | level can be extrapolated back to zero broadening by an electron-gas inspired
  | formula. For all systems that are not real metals, this value can be
  | meaningless and should be avoided.

------------------------------------------------------------------------------
  Methods described in the following list of references were used in this FHI-aims run.
  If you publish the results, please make sure to cite these reference if they apply.
  FHI-aims is an academic code, and for our developers (often, Ph.D. students
  and postdocs), scientific credit in the community is essential.
  Thank you for helping us!

  For any use of FHI-aims, please cite:

    Volker Blum, Ralf Gehrke, Felix Hanke, Paula Havu, Ville Havu,
    Xinguo Ren, Karsten Reuter, and Matthias Scheffler
    'Ab initio molecular simulations with numeric atom-centered orbitals'
    Computer Physics Communications 180, 2175-2196 (2009)
    http://dx.doi.org/10.1016/j.cpc.2009.06.022


  For the analytical stress tensor used in your run, please cite:

    Franz Knuth, Christian Carbogno, Viktor Atalla, Volker Blum, Matthias Scheffler
    'All-electron formalism for total energy strain derivatives and
    stress tensor components for numeric atom-centered orbitals'
    Computer Physics Communications 190, 33-50 (2015).
    http://dx.doi.org/10.1016/j.cpc.2015.01.003


  The scalable eigensolver library ELPA was used in your run.
  ELPA is essential especially for large systems on hundreds or thousands of CPUs.
  For ELPA, please cite:

    Andreas Marek, Volker Blum, Rainer Johanni, Ville Havu, Bruno Lang,
    Thomas Auckenthaler, Alexander Heinecke, Hans-Joachim Bungartz, and Hermann Lederer,
    'The ELPA Library - Scalable Parallel Eigenvalue Solutions
    for Electronic Structure Theory and Computational Science'
    The Journal of Physics: Condensed Matter 26, 213201 (2014).
    http://dx.doi.org/10.1088/0953-8984/26/21/213201


  The ELSI infrastructure was used in your run to solve the Kohn-Sham electronic structure.
  Please check out http://elsi-interchange.org to learn more.
  If scalability is important for your project, please acknowledge ELSI by citing:

    V. W-z. Yu, F. Corsetti, A. Garcia, W. P. Huhn, M. Jacquelin, W. Jia,
    B. Lange, L. Lin, J. Lu, W. Mi, A. Seifitokaldani, A. Vazquez-Mayagoitia,
    C. Yang, H. Yang, and V. Blum
    'ELSI: A unified software interface for Kohn-Sham electronic structure solvers'
    Computer Physics Communications 222, 267-285 (2018).
    http://dx.doi.org/10.1016/j.cpc.2017.09.007


  For the real-space grid partitioning and parallelization used in this calculation, please cite:

    Ville Havu, Volker Blum, Paula Havu, and Matthias Scheffler,
    'Efficient O(N) integration for all-electron electronic structure calculation'
    'using numerically tabulated basis functions'
    Journal of Computational Physics 228, 8367-8379 (2009).
    http://dx.doi.org/10.1016/j.jcp.2009.08.008

  Of course, there are many other important community references, e.g., those cited in the
  above references. Our list is limited to references that describe implementations in the
  FHI-aims code. The reason is purely practical (length of this list) - please credit others as well.

------------------------------------------------------------
          Leaving FHI-aims.
          Date     :  20191127, Time     :  202025.407

          Computational steps:
          | Number of self-consistency cycles          :           74
          | Number of SCF (re)initializations          :            6
          | Number of relaxation steps                 :            5

          Detailed time accounting                     :  max(cpu_time)    wall_clock(cpu1)
          | Total time                                 :      243.432 s         243.281 s
          | Preparation time                           :        0.168 s           0.869 s
          | Boundary condition initalization           :        3.660 s           3.646 s
          | Grid partitioning                          :        0.372 s           0.355 s
          | Preloading free-atom quantities on grid    :        0.608 s           0.593 s
          | Free-atom superposition energy             :        0.064 s           0.052 s
          | Total time for integrations                :       32.268 s          32.088 s
          | Total time for solution of K.-S. equations :        2.776 s           2.668 s
          | Total time for EV reorthonormalization     :        0.032 s           0.022 s
          | Total time for density & force components  :      180.904 s         180.633 s
          | Total time for mixing & preconditioning    :        1.904 s           1.771 s
          | Total time for Hartree multipole update    :        0.304 s           0.127 s
          | Total time for Hartree multipole sum       :       15.856 s          15.620 s
          | Total time for total energy evaluation     :        0.276 s           0.016 s
          | Total time for scaled ZORA corrections     :        0.000 s           0.000 s
          | Total time for vdW correction              :        4.000 s           3.984 s

          Partial memory accounting:
          | Residual value for overall tracked memory usage across tasks :           0.000 MB (should be 0.000 MB)
          | Peak values for overall tracked memory usage (after allocating wave_pulay):
          |   Minimum:       96.561 MB (on task 20)
          |   Maximum:      105.911 MB (on task 24)
          |   Average:      102.084 MB
          | Largest tracked array allocation (density_matrix_con):
          |   Minimum:       27.380 MB (on task 22)
          |   Maximum:       32.708 MB (on task 24)
          |   Average:       30.283 MB
          Note:  These values currently only include a subset of arrays which are explicitly tracked.
          The "true" memory usage will be greater.

          Have a nice day.
------------------------------------------------------------
