  MPI-parallelism will be employed.
------------------------------------------------------------
          Invoking FHI-aims ...
          Version 171221_1
          Compiled on 2018/11/06 at 11:18:49 on host headnode.

          When using FHI-aims, please cite the following reference:

          Volker Blum, Ralf Gehrke, Felix Hanke, Paula Havu,
          Ville Havu, Xinguo Ren, Karsten Reuter, and Matthias Scheffler,
          'Ab Initio Molecular Simulations with Numeric Atom-Centered Orbitals',
          Computer Physics Communications 180, 2175-2196 (2009)

          For any questions about FHI-aims, please visit the aimsclub website
          with its forums and wiki. Contributions to both the forums and the
          wiki are warmly encouraged - they are for you, and everyone is welcome there.

------------------------------------------------------------



  Date     :  20191128, Time     :  122604.441
  Time zero on CPU 1             :   0.476000000000000E+00  s.
  Internal wall clock time zero  :           344175964.441  s.

  FHI-aims created a unique identifier for this run for later identification
  aims_uuid : 8439A89B-6A6F-4996-ACCD-A4F5EC38E221

  Using       80 parallel tasks.
  Task        0 on host t033 reporting.
  Task        1 on host t033 reporting.
  Task        2 on host t033 reporting.
  Task        3 on host t033 reporting.
  Task        4 on host t033 reporting.
  Task        5 on host t033 reporting.
  Task        6 on host t033 reporting.
  Task        7 on host t033 reporting.
  Task        8 on host t033 reporting.
  Task        9 on host t033 reporting.
  Task       10 on host t033 reporting.
  Task       11 on host t033 reporting.
  Task       12 on host t033 reporting.
  Task       13 on host t033 reporting.
  Task       14 on host t033 reporting.
  Task       15 on host t033 reporting.
  Task       16 on host t033 reporting.
  Task       17 on host t033 reporting.
  Task       18 on host t033 reporting.
  Task       19 on host t033 reporting.
  Task       20 on host t031 reporting.
  Task       21 on host t031 reporting.
  Task       22 on host t031 reporting.
  Task       23 on host t031 reporting.
  Task       24 on host t031 reporting.
  Task       25 on host t031 reporting.
  Task       26 on host t031 reporting.
  Task       27 on host t031 reporting.
  Task       28 on host t031 reporting.
  Task       29 on host t031 reporting.
  Task       30 on host t031 reporting.
  Task       31 on host t031 reporting.
  Task       32 on host t031 reporting.
  Task       33 on host t031 reporting.
  Task       34 on host t031 reporting.
  Task       35 on host t031 reporting.
  Task       36 on host t031 reporting.
  Task       37 on host t031 reporting.
  Task       38 on host t031 reporting.
  Task       39 on host t031 reporting.
  Task       40 on host t019 reporting.
  Task       41 on host t019 reporting.
  Task       42 on host t019 reporting.
  Task       43 on host t019 reporting.
  Task       44 on host t019 reporting.
  Task       45 on host t019 reporting.
  Task       46 on host t019 reporting.
  Task       47 on host t019 reporting.
  Task       48 on host t019 reporting.
  Task       49 on host t019 reporting.
  Task       50 on host t019 reporting.
  Task       51 on host t019 reporting.
  Task       52 on host t019 reporting.
  Task       53 on host t019 reporting.
  Task       54 on host t019 reporting.
  Task       55 on host t019 reporting.
  Task       56 on host t019 reporting.
  Task       57 on host t019 reporting.
  Task       58 on host t019 reporting.
  Task       59 on host t019 reporting.
  Task       60 on host t018 reporting.
  Task       61 on host t018 reporting.
  Task       62 on host t018 reporting.
  Task       63 on host t018 reporting.
  Task       64 on host t018 reporting.
  Task       65 on host t018 reporting.
  Task       66 on host t018 reporting.
  Task       67 on host t018 reporting.
  Task       68 on host t018 reporting.
  Task       69 on host t018 reporting.
  Task       70 on host t018 reporting.
  Task       71 on host t018 reporting.
  Task       72 on host t018 reporting.
  Task       73 on host t018 reporting.
  Task       74 on host t018 reporting.
  Task       75 on host t018 reporting.
  Task       76 on host t018 reporting.
  Task       77 on host t018 reporting.
  Task       78 on host t018 reporting.
  Task       79 on host t018 reporting.

  Performing system and environment tests:
  | Environment variable OMP_NUM_THREADS correctly set to 1.
  | Stacksize not measured: no C compiler
  | Checking for scalapack...
  | Testing pdtran()...
  | All pdtran() tests passed.

  Obtaining array dimensions for all initial allocations:
  
  -----------------------------------------------------------------------
  Parsing control.in (first pass over file, find array dimensions only).
  The contents of control.in will be repeated verbatim below
  unless switched off by setting 'verbatim_writeout .false.' .
  in the first line of control.in .
  -----------------------------------------------------------------------
  
  #===============================================================================
  # FHI-aims file: ./control.in
  # Created using the Atomic Simulation Environment (ASE)
  # Wed Nov 27 20:14:07 2019
  #
  # List of parameters used to initialize the calculator:
  #     xc : pbe
  #     species_dir : /chemsoft/FHI-aims/stable/species_defaults/tight
  #     k_grid : [18, 18, 1]
  #     relativistic : ('atomic_zora', 'scalar')
  #     spin : none
  #     adjust_scf : once 2
  #===============================================================================
  xc                                 pbe
  many_body_dispersion
  k_grid                             18 18 1
  relativistic                       atomic_zora scalar
  spin                               none
  adjust_scf                         once 2
  ### geometry optimisation section
  relax_geometry    bfgs    1E-2
  relax_unit_cell       fixed_angles
  #===============================================================================
  
  ################################################################################
  #
  #  FHI-aims code project
  # Volker Blum, Fritz Haber Institute Berlin, 2009
  #
  #  Suggested "tight" defaults for Se atom (to be pasted into control.in file)
  #
  ################################################################################
    species        Se
  #     global species definitions
      nucleus             34
      mass                78.96
  #
      l_hartree           6
  #
      cut_pot             4.0          2.0  1.0
      basis_dep_cutoff    1e-4
  #
      radial_base         55 7.0
      radial_multiplier   2
      angular_grids       specified
        division   0.0830  110
        division   0.1357  194
        division   0.7377  302
        division   0.8610  434
  #      division   0.9640  590
  #      division   1.0773  770
  #      division   2.5539  974
  #      outer_grid  974
        outer_grid  434
  ################################################################################
  #
  #  Definition of "minimal" basis
  #
  ################################################################################
  #     valence basis states
      valence      4  s   2.
      valence      4  p   4.
      valence      3  d  10.
  #     ion occupancy
      ion_occ      4  s   1.
      ion_occ      4  p   3.
      ion_occ      3  d  10.
  ################################################################################
  #
  #  Suggested additional basis functions. For production calculations,
  #  uncomment them one after another (the most important basis functions are
  #  listed first).
  #
  #  Constructed for dimers: 1.85 A, 2.15 A, 2.50 A, 3.00 A, 4.00 A
  #
  ################################################################################
  #  "First tier" - improvements: -336.21 meV to -36.85 meV
       hydro 3 d 4.3
       hydro 2 p 1.6
       hydro 4 f 7.2
       ionic 4 s auto
  #  "Second tier" - improvements: -14.39 meV to -1.49 meV
       hydro 5 g 10.4
       hydro 4 p 4.5
       hydro 4 d 6.2
       hydro 4 f 11.2
       hydro 1 s 0.65
       hydro 6 h 15.2
  #  "Third tier" - improvements: -0.46 meV and below
  #     hydro 5 g 14.4
  #     ionic 4 d auto
  #     hydro 4 f 22.4
  #     hydro 5 f 7.4
  #     hydro 5 p 8
  #     hydro 5 s 9.4
  #  "Fourth tier" - improvements: -0.12 meV and below
  #     hydro 5 d 11.6
  #     hydro 6 h 18
  #     hydro 4 p 4
  #     hydro 5 f 16
  #     hydro 4 s 3.9
  #
  #
  ################################################################################
  #
  #  FHI-aims code project
  # Volker Blum, Fritz Haber Institute Berlin, 2009
  #
  #  Suggested "tight" defaults for Pt atom (to be pasted into control.in file)
  #
  ################################################################################
    species        Pt
  #     global species definitions
      nucleus             78
      mass                195.084
  #
      l_hartree           6
  #
      cut_pot             4.0  2.0  1.0
      basis_dep_cutoff    1e-4
  #
      radial_base         72 7.0
      radial_multiplier   2
      angular_grids specified
        division   0.3279   50
        division   0.7476  110
        division   1.0850  194
        division   1.2652  302
        division   1.6291  434
  #      division   1.9966  590
  #      division   2.1207  770
  #      division   2.1534  974
  #      division   2.7454 1202
  #      outer_grid    974
        outer_grid  434
  ################################################################################
  #
  #  Definition of "minimal" basis
  #
  ################################################################################
  #     valence basis states
      valence      6  s   1.
      valence      5  p   6.
      valence      5  d   9.
      valence      4  f  14.
  #     ion occupancy
      ion_occ     6  s   0.
      ion_occ     5  p   6.
      ion_occ     5  d   8.
      ion_occ     4  f   14.
  ################################################################################
  #
  #  Suggested additional basis functions. For production calculations,
  #  uncomment them one after another (the most important basis functions are
  #  listed first).
  #
  #  Constructed for dimers: 2.00, 2.275, 2.75, 3.75 AA
  #
  ################################################################################
  #  "First tier" - max. impr. -193.66  meV, min. impr. -18.25 meV
       hydro 4 f 7.4
       ionic 6 p auto
       hydro 5 g 9.8
       ionic 6 s auto
       hydro 3 d 2.6
  #  "Second tier" - max. impr. -10.25  meV, min. impr. -0.56 meV
       hydro 6 h 14
       hydro 5 f 14
       hydro 4 d 4
       hydro 3 p 3.3
       hydro 5 g 16.4
       hydro 1 s 0.5
  #  "Third tier" - max. impr. -0.72  meV, min. impr. -0.18 meV
  #     hydro 5 f 9
  #     ionic 5 d auto
  #     hydro 6 h 16.4
  #     hydro 5 g 12.4
  #     hydro 5 g 34
  #     hydro 5 s 13.6
  #     hydro 5 p 10.4
  #  Further functions:
  
  -----------------------------------------------------------------------
  Completed first pass over input file control.in .
  -----------------------------------------------------------------------
  
  
  -----------------------------------------------------------------------
  Parsing geometry.in (first pass over file, find array dimensions only).
  The contents of geometry.in will be repeated verbatim below
  unless switched off by setting 'verbatim_writeout .false.' .
  in the first line of geometry.in .
  -----------------------------------------------------------------------
  
  #=======================================================
  # FHI-aims file: ./geometry.in
  # Created using the Atomic Simulation Environment (ASE)
  # Wed Nov 27 20:14:07 2019
  #=======================================================
  lattice_vector 3.6376457200000001 0.0000000000000000 0.0000000000000000
  lattice_vector -1.8188228600000000 3.1502935999999999 0.0000000000000000
  lattice_vector 0.0000000000000000 0.0000000000000000 100.0000000000000000
  atom 1.8188228600000000 -1.0500978700000001 3.9429267399999999 Se
  atom 0.0000000000000000 0.0000000000000000 2.5969811200000001 Pt
  atom -1.8188228600000000 1.0500978700000001 1.2702997300000001 Se
  atom 1.8188228600000000 -1.0500978700000001 -1.2702997300000001 Se
  atom 0.0000000000000000 0.0000000000000000 -2.5969811200000001 Pt
  atom -1.8188228600000000 1.0500978700000001 -3.9429267399999999 Se
  
  -----------------------------------------------------------------------
  Completed first pass over input file geometry.in .
  -----------------------------------------------------------------------
  

  Basic array size parameters:
  | Number of species                 :        2
  | Number of atoms                   :        6
  | Number of lattice vectors         :        3
  | Max. basis fn. angular momentum   :        5
  | Max. atomic/ionic basis occupied n:        6
  | Max. number of basis fn. types    :        3
  | Max. radial fns per species/type  :       14
  | Max. logarithmic grid size        :     1487
  | Max. radial integration grid size :      145
  | Max. angular integration grid size:      434
  | Max. angular grid division number :        8
  | Radial grid for Hartree potential :     1487
  | Number of spin channels           :        1

------------------------------------------------------------
          Reading file control.in.
------------------------------------------------------------
  XC: Using PBE gradient-corrected functionals.
  Using the default MBD implementation with analytical forces
  Found k-point grid:        18        18         1
  Scalar relativistic treatment of kinetic energy: on-site free-atom approximation to ZORA.
  Spin treatment: No spin polarisation.
  S.C.F. convergence parameters will be adjusted in iteration number     2 of the first full s.c.f. cycle only.
  Geometry relaxation: Modified BFGS - TRM (trust radius method, i.e., trusted quadratic extrapolation).
  Convergence accuracy for geometry relaxation: Maximum force <   0.100000E-01 eV/A.
 
  Reading configuration options for species Se                  .
  | Found nuclear charge :  34.0000
  | Found atomic mass :    78.9600000000000      amu
  | Found l_max for Hartree potential  :   6
  | Found cutoff potl. onset [A], width [A], scale factor :    4.00000    2.00000    1.00000
  | Threshold for basis-dependent cutoff potential is   0.100000E-03
  | Found data for basic radial integration grid :    55 points, outermost radius =    7.000 A
  | Found multiplier for basic radial grid :   2
  | Found angular grid specification: user-specified.
  | Specified grid contains     5 separate shells.
  | Check grid settings after all constraints further below.
  | Found free-atom valence shell :  4 s   2.000
  | Found free-atom valence shell :  4 p   4.000
  | Found free-atom valence shell :  3 d  10.000
  | Found free-ion valence shell :  4 s   1.000
  | Found free-ion valence shell :  4 p   3.000
  | Found free-ion valence shell :  3 d  10.000
  | Found hydrogenic basis function :  3 d   4.300
  | Found hydrogenic basis function :  2 p   1.600
  | Found hydrogenic basis function :  4 f   7.200
  | Found ionic basis function :  4 s , default cutoff radius.
  | Found hydrogenic basis function :  5 g  10.400
  | Found hydrogenic basis function :  4 p   4.500
  | Found hydrogenic basis function :  4 d   6.200
  | Found hydrogenic basis function :  4 f  11.200
  | Found hydrogenic basis function :  1 s   0.650
  | Found hydrogenic basis function :  6 h  15.200
  Species Se                  : Missing cutoff potential type.
  Defaulting to exp(1/x)/(1-x)^2 type cutoff potential.
  Species Se: No 'logarithmic' tag. Using default grid for free atom:
  | Default logarithmic grid data [bohr] : 0.1000E-03 0.1000E+03 0.1012E+01
  | Will include ionic basis functions of  2.0-fold positive Se                   ion.
  Species Se: On-site basis accuracy parameter (for Gram-Schmidt orthonormalisation) not specified.
  Using default value basis_acc =  0.1000000E-03.
  Species Se                  : Using default innermost maximum threshold i_radial=  2 for radial functions.
  Species Se                  : Default cutoff onset for free atom density etc. : 0.40000000E+01 AA.
  Species Se                  : Basic radial grid will be enhanced according to radial_multiplier =   2, to contain   111 grid points.
 
  Reading configuration options for species Pt                  .
  | Found nuclear charge :  78.0000
  | Found atomic mass :    195.084000000000      amu
  | Found l_max for Hartree potential  :   6
  | Found cutoff potl. onset [A], width [A], scale factor :    4.00000    2.00000    1.00000
  | Threshold for basis-dependent cutoff potential is   0.100000E-03
  | Found data for basic radial integration grid :    72 points, outermost radius =    7.000 A
  | Found multiplier for basic radial grid :   2
  | Found angular grid specification: user-specified.
  | Specified grid contains     6 separate shells.
  | Check grid settings after all constraints further below.
  | Found free-atom valence shell :  6 s   1.000
  | Found free-atom valence shell :  5 p   6.000
  | Found free-atom valence shell :  5 d   9.000
  | Found free-atom valence shell :  4 f  14.000
  | Found free-ion valence shell :  6 s   0.000
  | Found free-ion valence shell :  5 p   6.000
  | Found free-ion valence shell :  5 d   8.000
  | Found free-ion valence shell :  4 f  14.000
  | Found hydrogenic basis function :  4 f   7.400
  | Found ionic basis function :  6 p , default cutoff radius.
  | Found hydrogenic basis function :  5 g   9.800
  | Found ionic basis function :  6 s , default cutoff radius.
  | Found hydrogenic basis function :  3 d   2.600
  | Found hydrogenic basis function :  6 h  14.000
  | Found hydrogenic basis function :  5 f  14.000
  | Found hydrogenic basis function :  4 d   4.000
  | Found hydrogenic basis function :  3 p   3.300
  | Found hydrogenic basis function :  5 g  16.400
  | Found hydrogenic basis function :  1 s   0.500
  Species Pt                  : Missing cutoff potential type.
  Defaulting to exp(1/x)/(1-x)^2 type cutoff potential.
  Species Pt: No 'logarithmic' tag. Using default grid for free atom:
  | Default logarithmic grid data [bohr] : 0.1000E-03 0.1000E+03 0.1012E+01
  | Will include ionic basis functions of  2.0-fold positive Pt                   ion.
  Species Pt: On-site basis accuracy parameter (for Gram-Schmidt orthonormalisation) not specified.
  Using default value basis_acc =  0.1000000E-03.
  Species Pt                  : Using default innermost maximum threshold i_radial=  2 for radial functions.
  Species Pt                  : Default cutoff onset for free atom density etc. : 0.40000000E+01 AA.
  Species Pt                  : Basic radial grid will be enhanced according to radial_multiplier =   2, to contain   145 grid points.
  | MBD: Using the same k-grid sampling as DFT
 
  Finished reading input file 'control.in'. Consistency checks are next.
 
  MPI_IN_PLACE appears to work with this MPI implementation.
  | Keeping use_mpi_in_place .true. (see manual).
  Target number of points in a grid batch is not set. Defaulting to  100
  Method for grid partitioning is not set. Defaulting to parallel hash+maxmin partitioning.
  Batch size limit is not set. Defaulting to    200
  By default, will store active basis functions for each batch.
  If in need of memory, prune_basis_once .false. can be used to disable this option.
  communication_type for Hartree potential was not specified.
  Defaulting to calc_hartree .
  Defaulting to Pulay charge density mixer.
  Pulay mixer: Number of relevant iterations not set.
  Defaulting to    8 iterations.
  Pulay mixer: Number of initial linear mixing iterations not set.
  Defaulting to    0 iterations.
  Work space size for distributed Hartree potential not set.
  Defaulting to   0.200000E+03 MB.
  Mixing parameter for charge density mixing has not been set.
  Using default: charge_mix_param =     0.0500.
  The mixing parameter will be adjusted in iteration number     2 of the first full s.c.f. cycle only.
  Algorithm-dependent basis array size parameters:
  | n_max_pulay                         :        8
 * Notice: The s.c.f. convergence criterion sc_accuracy_rho was not provided.
 * We used to stop in this case, and ask the user to provide reasonable
 * scf convergence criteria. However, this led some users to employ criteria
 * that led to extremely long run times, e.g., for simple relaxation.
 * We now preset a default value for sc_accuracy_rho if it is not set.
 * You may still wish to check if this setting is too tight or too loose for your needs.
 * Based on n_atoms, FHI-aims chose sc_accuracy_rho =  0.100000E-05 .
  Maximum number of self-consistency iterations not provided.
  Presetting  1000 iterations.
  Presetting      1001 iterations before the initial mixing cycle
  is restarted anyway using the sc_init_iter criterion / keyword.
  Presetting a factor      1.000 between actual scf density residual
  and density convergence criterion sc_accuracy_rho below which sc_init_iter
  takes no effect.
 * No s.c.f. convergence criteria (sc_accuracy_*) were provided in control.in.
 * The run will proceed with a reasonable default guess, but please check whether.
 * the s.c.f. cycles seem to take too much or too little time.
  No maximum number of relaxation steps, defaulting to     1000
  Default initial Hessian is Lindh matrix (thres = 15.00) plus  0.200000E+01 eV/A^2 times unity.
  No maximum energy tolerance for TRM/BFGS moves, defaulting to   0.200000E-03
  No harmonic length scale. Defaulting to   0.250000E-01 A.
  No trust radius initializer. Defaulting to   0.200000E+00 A.
  Unit cell relaxation: Restricted relaxation with fixed angles between lattice vectors.
  Unit cell relaxation: Analytical stress will be used.
  Analytical stress will be computed.
  Analytical stress calculation: Only the upper triangle is calculated.
                                 Final output is symmetrized.
  Analytical stress calculation: scf convergence accuracy of stress not set.
                                 Analytical stress self-consistency will not be checked explicitly.
                                 Be sure to set other criteria like sc_accuracy_rho tight enough.
  Force calculation: scf convergence accuracy of forces not set.
  Defaulting to 'sc_accuracy_forces not_checked'.
  Handling of forces: Unphysical translation and rotation will be removed from forces.
  No accuracy limit for integral partition fn. given. Defaulting to  0.1000E-14.
  No threshold value for u(r) in integrations given. Defaulting to  0.1000E-05.
  No occupation type (smearing scheme) given. Defaulting to Gaussian broadening, width =  0.1000E-01 eV.
  The width will be adjusted in iteration number     2 of the first full s.c.f. cycle only.
  S.C.F. convergence parameters will be adjusted in iteration number     2 of the first full s.c.f. cycle only.
  No accuracy for occupation numbers given. Defaulting to  0.1000E-12.
  No threshold value for occupation numbers given. Defaulting to  0.0000E+00.
  No accuracy for fermi level given. Defaulting to  0.1000E-19.
  Maximum # of iterations to find E_F not set. Defaulting to  200.
  Preferred method for the eigenvalue solver ('KS_method') not specified in 'control.in'.
  Defaulting to serial version, 'lapack_fast', since more k-points than CPUs available.
  Will not use alltoall communication since running on < 1024 CPUs.
  Threshold for basis singularities not set.
  Default threshold for basis singularities:  0.1000E-04
  partition_type (choice of integration weights) for integrals was not specified.
  | Using a version of the partition function of Stratmann and coworkers ('stratmann_smoother').
  | At each grid point, the set of atoms used to build the partition table is smoothly restricted to
  | only those atoms whose free-atom density would be non-zero at that grid point.
  Partitioning for Hartree potential was not defined. Using partition_type for integrals.
  | Adjusted default value of keyword multip_moments_threshold to:       0.10000000E-11
  | This value may affect high angular momentum components of the Hartree potential in periodic systems.
  Angular momentum expansion for Kerker preconditioner not set explicitly.
  | Using default value of   0
  No explicit requirement for turning off preconditioner.
  | By default, it will be turned off when the charge convergence reaches
  | sc_accuracy_rho  =   0.100000E-05
  No special mixing parameter while Kerker preconditioner is on.
  Using default: charge_mix_param =     0.0500.
  No q(lm)/r^(l+1) cutoff set for long-range Hartree potential.
  | Using default value of  0.100000E-09 .
  | Verify using the multipole_threshold keyword.
  Defaulting to new monopole extrapolation.
  Density update method: automatic selection selected.
  Using density matrix based charge density update.
  Using density matrix based charge density update.
  Using packed matrix style: index .
  Geometry relaxation: A file "geometry.in.next_step" is written out by default after each step.
  | This file contains the geometry of the current relaxation step as well as
  | the current Hessian matrix needed to restart the relaxation algorithm.
  | If you do not want part or all of this information, use the keywords
  | "write_restart_geometry" or "hessian_to_restart_geometry" to switch the output off.
  Defaulting to use time-reversal symmetry for k-point grid.
------------------------------------------------------------


------------------------------------------------------------
          Reading geometry description geometry.in.
------------------------------------------------------------
  Input structure read successfully.
  The structure contains        6 atoms,  and a total of        292.000 electrons.

  Input geometry:
  | Unit cell:
  |        3.63764572        0.00000000        0.00000000
  |       -1.81882286        3.15029360        0.00000000
  |        0.00000000        0.00000000      100.00000000
  | Atomic structure:
  |       Atom                x [A]            y [A]            z [A]
  |    1: Species Se            1.81882286       -1.05009787        3.94292674
  |    2: Species Pt            0.00000000        0.00000000        2.59698112
  |    3: Species Se           -1.81882286        1.05009787        1.27029973
  |    4: Species Se            1.81882286       -1.05009787       -1.27029973
  |    5: Species Pt            0.00000000        0.00000000       -2.59698112
  |    6: Species Se           -1.81882286        1.05009787       -3.94292674

  Lattice parameters for 3D lattice (in Angstroms) :     3.637646    3.637646  100.000000
  Angle(s) between unit vectors (in degrees)      :    90.000000   90.000000  120.000000

  |

  | The smallest distance between any two atoms is         2.48413076 AA.
  |
  | The first atom of this pair is atom number                      2 .
  | The second atom of this pair is atom number                     3 .
  | Wigner-Seitz cell of the first atom image           0     1     0 .
  | (The Wigner-Seitz cell of the second atom is 0 0 0  by definition.)

  Quantities derived from the lattice vectors:
  | Reciprocal lattice vector 1:  1.727267  0.997238  0.000000
  | Reciprocal lattice vector 2: -0.000000  1.994476  0.000000
  | Reciprocal lattice vector 3:  0.000000  0.000000  0.062832
  | Unit cell volume                               :   0.114597E+04  A^3

  Range separation radius for Ewald summation (hartree_convergence_parameter):      5.00000000 bohr.

  Fractional coordinates:
                         L1                L2                L3
       atom_frac         0.33333333       -0.33333333        0.03942927  Se
       atom_frac         0.00000000        0.00000000        0.02596981  Pt
       atom_frac        -0.33333333        0.33333333        0.01270300  Se
       atom_frac         0.33333333       -0.33333333       -0.01270300  Se
       atom_frac         0.00000000        0.00000000       -0.02596981  Pt
       atom_frac        -0.33333333        0.33333333       -0.03942927  Se

  Number of empty states per atom not set in control.in - providing a guess from actual geometry.
  | Total number of empty states used during s.c.f. cycle:       40
  If you use a very high smearing, use empty_states (per atom!) in control.in to increase this value.

  Structure-dependent array size parameters: 
  | Maximum number of distinct radial functions  :       43
  | Maximum number of basis functions            :      482
  | Number of Kohn-Sham states (occupied + empty):      186
------------------------------------------------------------

------------------------------------------------------------
          Preparing all fixed parts of the calculation.
------------------------------------------------------------
  Determining machine precision:
    2.225073858507201E-308
  Setting up grids for atomic and cluster calculations.

  Creating wave function, potential, and density for free atoms.

  Species: Se

  List of occupied orbitals and eigenvalues:
    n    l              occ      energy [Ha]    energy [eV]
    1    0           2.0000      -466.337810    -12689.6975
    2    0           2.0000       -59.202598     -1610.9847
    3    0           2.0000        -7.847116      -213.5309
    4    0           2.0000        -0.634372       -17.2621
    2    1           6.0000       -52.061107     -1416.6548
    3    1           6.0000        -5.620941      -152.9536
    4    1           4.0000        -0.238469        -6.4891
    3    2          10.0000        -1.951949       -53.1152


  Species: Pt

  List of occupied orbitals and eigenvalues:
    n    l              occ      energy [Ha]    energy [eV]
    1    0           2.0000     -3153.103304    -85800.3064
    2    0           2.0000      -515.589489    -14029.9038
    3    0           2.0000      -119.501787     -3251.8091
    4    0           2.0000       -25.569766      -695.7887
    5    0           2.0000        -3.736651      -101.6795
    6    0           1.0000        -0.206416        -5.6169
    2    1           6.0000      -445.953190    -12135.0037
    3    1           6.0000       -99.656176     -2711.7825
    4    1           6.0000       -19.104871      -519.8700
    5    1           6.0000        -2.054483       -55.9053
    3    2          10.0000       -78.244476     -2129.1405
    4    2          10.0000       -11.276663      -306.8536
    5    2           9.0000        -0.224682        -6.1139
    4    3          14.0000        -2.581704       -70.2517

  Creating fixed part of basis set: Ionic, confined, hydrogenic.
 
  Se                   ion:

  List of free ionic orbitals and eigenvalues:
    n    l      energy [Ha]    energy [eV]
    1    0      -467.261007    -12714.8189
    2    0       -60.104893     -1635.5374
    3    0        -8.743714      -237.9286
    4    0        -1.414053       -38.4783
    2    1       -52.964156     -1441.2280
    3    1        -6.516916      -177.3343
    4    1        -0.961869       -26.1738
    3    2        -2.844511       -77.4031


  List of ionic basis orbitals and eigenvalues:
    n    l      energy [Ha]    energy [eV]    outer radius [A]
    4    0        -1.414046       -38.4782       4.083166

 
  Se                   hydrogenic:
 
  List of hydrogenic basis orbitals: 
    n    l      effective z      eigenvalue [eV]  inner max. [A]     outer max. [A]     outer radius [A]   
    3    2         4.300000       -27.9518           1.103845           1.103845           5.278265
    2    1         1.600000        -8.6828           1.326010           1.326010           5.475439
    4    3         7.200000       -44.0822           1.173422           1.173422           4.965294
    5    4        10.400000       -58.8635           1.278259           1.278259           4.904963
    4    1         4.500000       -16.9509           0.333121           2.727671           5.475439
    4    2         6.200000       -32.6848           0.577455           1.800022           5.408909
    4    3        11.200000      -106.6686           0.755651           0.755651           3.657749
    1    0         0.650000        -5.7375           0.813162           0.813162           5.408909
    6    5        15.200000       -87.3182           1.247385           1.247385           4.614127
 
 
  Pt                   ion:

  List of free ionic orbitals and eigenvalues:
    n    l      energy [Ha]    energy [eV]
    1    0     -3153.944388    -85823.1934
    2    0      -516.374474    -14051.2643
    3    0      -120.278274     -3272.9384
    4    0       -26.344243      -716.8633
    5    0        -4.507613      -122.6584
    2    1      -446.736765    -12156.3259
    3    1      -100.432254     -2732.9007
    4    1       -19.879176      -540.9399
    5    1        -2.820901       -76.7606
    3    2       -79.020090     -2150.2461
    4    2       -12.050716      -327.9167
    5    2        -0.950990       -25.8778
    4    3        -3.355307       -91.3026


  List of ionic basis orbitals and eigenvalues:
    n    l      energy [Ha]    energy [eV]    outer radius [A]
    6    1        -0.526730       -14.3331       5.414053
    6    0        -0.812719       -22.1152       5.155675

 
  Pt                   hydrogenic:
 
  List of hydrogenic basis orbitals: 
    n    l      effective z      eigenvalue [eV]  inner max. [A]     outer max. [A]     outer radius [A]   
    4    3         7.400000       -46.5653           1.146169           1.146169           4.909628
    5    4         9.800000       -52.2674           1.343596           1.343596           5.155675
    3    2         2.600000       -10.1361           1.823895           1.823895           5.480646
    6    5        14.000000       -74.0753           1.360123           1.360123           4.849973
    5    3        14.000000      -106.6686           0.458200           1.233400           4.188210
    4    2         4.000000       -13.2388           0.897561           2.730266           5.480646
    3    1         3.300000       -16.4334           0.481163           1.915300           5.480646
    5    4        16.400000      -146.3754           0.804045           0.804045           3.529385
    1    0         0.500000        -3.3476           1.052165           1.052165           5.480646
 

  Adding cutoff potential to free-atom effective potential.
  Creating atomic-like basis functions for current effective potential.

  Species Se                  :

  List of atomic basis orbitals and eigenvalues:
    n    l      energy [Ha]    energy [eV]    outer radius [A]
    1    0      -466.337810    -12689.6975       0.309561
    2    0       -59.202598     -1610.9847       0.885812
    3    0        -7.847116      -213.5309       2.355489
    4    0        -0.634372       -17.2621       5.214131
    2    1       -52.061107     -1416.6548       0.907737
    3    1        -5.620941      -152.9536       2.694529
    4    1        -0.238469        -6.4891       5.408909
    3    2        -1.951949       -53.1152       4.083166


  Species Pt                  :

  List of atomic basis orbitals and eigenvalues:
    n    l      energy [Ha]    energy [eV]    outer radius [A]
    1    0     -3153.103304    -85800.3064       0.122365
    2    0      -515.589489    -14029.9038       0.321431
    3    0      -119.501787     -3251.8091       0.669333
    4    0       -25.569766      -695.7887       1.393787
    5    0        -3.736651      -101.6795       3.402290
    6    0        -0.206416        -5.6169       5.414053
    2    1      -445.953190    -12135.0037       0.333438
    3    1       -99.656176     -2711.7825       0.720273
    4    1       -19.104871      -519.8700       1.575030
    5    1        -2.054483       -55.9053       4.398103
    3    2       -78.244476     -2129.1405       0.765673
    4    2       -11.276663      -306.8536       1.915300
    5    2        -0.224682        -6.1139       5.348269
    4    3        -2.581704       -70.2517       3.402290

  Assembling full basis from fixed parts.
  | Species Se :   atomic orbital   1 s accepted.
  | Species Se :   atomic orbital   2 s accepted.
  | Species Se :   atomic orbital   3 s accepted.
  | Species Se :    ionic orbital   4 s accepted.
  | Species Se :   atomic orbital   4 s accepted.
  | Species Se :    hydro orbital   1 s accepted.
  | Species Se :   atomic orbital   2 p accepted.
  | Species Se :   atomic orbital   3 p accepted.
  | Species Se :   atomic orbital   4 p accepted.
  | Species Se :    hydro orbital   2 p accepted.
  | Species Se :    hydro orbital   4 p accepted.
  | Species Se :   atomic orbital   3 d accepted.
  | Species Se :    hydro orbital   3 d accepted.
  | Species Se :    hydro orbital   4 d accepted.
  | Species Se :    hydro orbital   4 f accepted.
  | Species Se :    hydro orbital   4 f accepted.
  | Species Se :    hydro orbital   5 g accepted.
  | Species Se :    hydro orbital   6 h accepted.
  | Species Pt :   atomic orbital   1 s accepted.
  | Species Pt :   atomic orbital   2 s accepted.
  | Species Pt :   atomic orbital   3 s accepted.
  | Species Pt :   atomic orbital   4 s accepted.
  | Species Pt :   atomic orbital   5 s accepted.
  | Species Pt :    ionic orbital   6 s accepted.
  | Species Pt :   atomic orbital   6 s accepted.
  | Species Pt :    hydro orbital   1 s accepted.
  | Species Pt :   atomic orbital   2 p accepted.
  | Species Pt :   atomic orbital   3 p accepted.
  | Species Pt :   atomic orbital   4 p accepted.
  | Species Pt :   atomic orbital   5 p accepted.
  | Species Pt :    ionic orbital   6 p accepted.
  | Species Pt :    hydro orbital   3 p accepted.
  | Species Pt :   atomic orbital   3 d accepted.
  | Species Pt :   atomic orbital   4 d accepted.
  | Species Pt :   atomic orbital   5 d accepted.
  | Species Pt :    hydro orbital   3 d accepted.
  | Species Pt :    hydro orbital   4 d accepted.
  | Species Pt :   atomic orbital   4 f accepted.
  | Species Pt :    hydro orbital   5 f accepted.
  | Species Pt :    hydro orbital   4 f accepted.
  | Species Pt :    hydro orbital   5 g accepted.
  | Species Pt :    hydro orbital   5 g accepted.
  | Species Pt :    hydro orbital   6 h accepted.
 
  Basis size parameters after reduction:
  | Total number of radial functions:       43
  | Total number of basis functions :      482
 
  Per-task memory consumption for arrays in subroutine allocate_ext:
  |          16.382216MB.
  Testing on-site integration grid accuracy.
  |  Species  Function  <phi|h_atom|phi> (log., in eV)  <phi|h_atom|phi> (rad., in eV)
           1        1             -12689.6974611609             -12689.6967666984
           1        2              -1610.9846578580              -1610.9846472470
           1        3               -213.5308789869               -213.5308777267
           1        4                -17.0464428502                -17.0464426496
           1        5                  6.7356859379                  6.7356842047
           1        6                 16.3222979729                 16.3222286215
           1        7              -1416.6548010133              -1416.6548002108
           1        8               -152.9535734377               -152.9535727493
           1        9                 -6.4896265677                 -6.4896303794
           1       10                  5.2703037283                  5.2701679583
           1       11                 24.5827617535                 24.5824715668
           1       12                -53.1152220964                -53.1152219035
           1       13                  7.6186674138                  7.6186665630
           1       14                 26.7015845260                 26.7015708238
           1       15                 49.4570230857                 49.4570230427
           1       16                 39.6372293866                 39.6372304734
           1       17                 42.1067201496                 42.1067200432
           1       18                 70.4166767372                 70.4166768848
           2       19             -85800.3063919402             -85800.2856196525
           2       20             -14029.9038190300             -14029.9034024834
           2       21              -3251.8090796967              -3251.8090493758
           2       22               -695.7887467667               -695.7887380874
           2       23               -101.6794541356               -101.6794523410
           2       24                 -5.0775855778                 -5.0775852335
           2       25                  4.7711468006                  4.7712019670
           2       26                 24.7621144043                 24.7637521451
           2       27             -12135.0037192377             -12135.0037104521
           2       28              -2711.7825232765              -2711.7825171098
           2       29               -519.8699987987               -519.8699936839
           2       30                -55.9053342222                -55.9053330070
           2       31                  0.5776141094                  0.5776162181
           2       32                 15.3530163323                 15.3530453755
           2       33              -2129.1405232717              -2129.1405210370
           2       34               -306.8536046310               -306.8536019193
           2       35                 -6.1140333573                 -6.1140328175
           2       36                  6.1273756144                  6.1274132666
           2       37                 21.1217396506                 21.1218670351
           2       38                -70.2517499717                -70.2517493442
           2       39                 47.5530142063                 47.5530141500
           2       40                 77.5537547535                 77.5537547277
           2       41                 81.3853022728                 81.3853022935
           2       42                 48.9012910970                 48.9012909999
           2       43                 58.5611580723                 58.5611580576

  Preparing densities etc. for the partition functions (integrals / Hartree potential).

  Preparations completed.
  max(cpu_time)          :      0.544 s.
  Wall clock time (cpu1) :      0.544 s.
------------------------------------------------------------

------------------------------------------------------------
          Begin self-consistency loop: Initialization.

          Date     :  20191128, Time     :  122605.084
------------------------------------------------------------

  Initializing index lists of integration centers etc. from given atomic structure:
  Mapping all atomic coordinates to central unit cell.

  Initializing the k-points
          Using symmetry for reducing the k-points
  | k-points reduced from:      324 to      164
  | Number of k-points                             :       164
  The eigenvectors in the calculations are COMPLEX.
  | K-points in task   0:         2
  | K-points in task   1:         3
  | K-points in task   2:         3
  | K-points in task   3:         3
  | K-points in task   4:         3
  | K-points in task   5:         2
  | K-points in task   6:         2
  | K-points in task   7:         2
  | K-points in task   8:         2
  | K-points in task   9:         2
  | K-points in task  10:         2
  | K-points in task  11:         2
  | K-points in task  12:         2
  | K-points in task  13:         2
  | K-points in task  14:         2
  | K-points in task  15:         2
  | K-points in task  16:         2
  | K-points in task  17:         2
  | K-points in task  18:         2
  | K-points in task  19:         2
  | K-points in task  20:         2
  | K-points in task  21:         2
  | K-points in task  22:         2
  | K-points in task  23:         2
  | K-points in task  24:         2
  | K-points in task  25:         2
  | K-points in task  26:         2
  | K-points in task  27:         2
  | K-points in task  28:         2
  | K-points in task  29:         2
  | K-points in task  30:         2
  | K-points in task  31:         2
  | K-points in task  32:         2
  | K-points in task  33:         2
  | K-points in task  34:         2
  | K-points in task  35:         2
  | K-points in task  36:         2
  | K-points in task  37:         2
  | K-points in task  38:         2
  | K-points in task  39:         2
  | K-points in task  40:         2
  | K-points in task  41:         2
  | K-points in task  42:         2
  | K-points in task  43:         2
  | K-points in task  44:         2
  | K-points in task  45:         2
  | K-points in task  46:         2
  | K-points in task  47:         2
  | K-points in task  48:         2
  | K-points in task  49:         2
  | K-points in task  50:         2
  | K-points in task  51:         2
  | K-points in task  52:         2
  | K-points in task  53:         2
  | K-points in task  54:         2
  | K-points in task  55:         2
  | K-points in task  56:         2
  | K-points in task  57:         2
  | K-points in task  58:         2
  | K-points in task  59:         2
  | K-points in task  60:         2
  | K-points in task  61:         2
  | K-points in task  62:         2
  | K-points in task  63:         2
  | K-points in task  64:         2
  | K-points in task  65:         2
  | K-points in task  66:         2
  | K-points in task  67:         2
  | K-points in task  68:         2
  | K-points in task  69:         2
  | K-points in task  70:         2
  | K-points in task  71:         2
  | K-points in task  72:         2
  | K-points in task  73:         2
  | K-points in task  74:         2
  | K-points in task  75:         2
  | K-points in task  76:         2
  | K-points in task  77:         2
  | K-points in task  78:         2
  | K-points in task  79:         2
  | Number of basis functions in the Hamiltonian integrals :      6158
  | Number of basis functions in a single unit cell        :       482
  | Number of centers in hartree potential         :       582
  | Number of centers in hartree multipole         :       306
  | Number of centers in electron density summation:       254
  | Number of centers in basis integrals           :       270
  | Number of centers in integrals                 :       114
  | Number of centers in hamiltonian               :       254
  | Consuming        123 KiB for k_phase.
  | Number of super-cells (origin) [n_cells]                     :         675
  | Number of super-cells (after PM_index) [n_cells]             :          48
  | Number of super-cells in hamiltonian [n_cells_in_hamiltonian]:          48
  | Size of matrix packed + index [n_hamiltonian_matrix_size] :     2086774
  Initializing relaxation algorithms.
  Partitioning the integration grid into batches with parallel hashing+maxmin method.
  | Number of batches:     2187
  | Maximal batch size:     180
  | Minimal batch size:       1
  | Average batch size:      91.020
  | Standard deviation of batch sizes:      24.905

  Integration load balanced across    80 MPI tasks.
  Work distribution over tasks is as follows:
  Task     0 has       2461 integration points.
  Task     1 has       2458 integration points.
  Task     2 has       2460 integration points.
  Task     3 has       2443 integration points.
  Task     4 has       2549 integration points.
  Task     5 has       2488 integration points.
  Task     6 has       2483 integration points.
  Task     7 has       2438 integration points.
  Task     8 has       2527 integration points.
  Task     9 has       2444 integration points.
  Task    10 has       2546 integration points.
  Task    11 has       2464 integration points.
  Task    12 has       2549 integration points.
  Task    13 has       2480 integration points.
  Task    14 has       2488 integration points.
  Task    15 has       2477 integration points.
  Task    16 has       2487 integration points.
  Task    17 has       2549 integration points.
  Task    18 has       2446 integration points.
  Task    19 has       2475 integration points.
  Task    20 has       2491 integration points.
  Task    21 has       2545 integration points.
  Task    22 has       2525 integration points.
  Task    23 has       2530 integration points.
  Task    24 has       2495 integration points.
  Task    25 has       2511 integration points.
  Task    26 has       2489 integration points.
  Task    27 has       2500 integration points.
  Task    28 has       2486 integration points.
  Task    29 has       2461 integration points.
  Task    30 has       2485 integration points.
  Task    31 has       2446 integration points.
  Task    32 has       2442 integration points.
  Task    33 has       2445 integration points.
  Task    34 has       2439 integration points.
  Task    35 has       2551 integration points.
  Task    36 has       2480 integration points.
  Task    37 has       2481 integration points.
  Task    38 has       2524 integration points.
  Task    39 has       2594 integration points.
  Task    40 has       2441 integration points.
  Task    41 has       2497 integration points.
  Task    42 has       2441 integration points.
  Task    43 has       2443 integration points.
  Task    44 has       2477 integration points.
  Task    45 has       2454 integration points.
  Task    46 has       2479 integration points.
  Task    47 has       2447 integration points.
  Task    48 has       2486 integration points.
  Task    49 has       2440 integration points.
  Task    50 has       2489 integration points.
  Task    51 has       2443 integration points.
  Task    52 has       2498 integration points.
  Task    53 has       2441 integration points.
  Task    54 has       2503 integration points.
  Task    55 has       2543 integration points.
  Task    56 has       2550 integration points.
  Task    57 has       2545 integration points.
  Task    58 has       2487 integration points.
  Task    59 has       2459 integration points.
  Task    60 has       2591 integration points.
  Task    61 has       2454 integration points.
  Task    62 has       2589 integration points.
  Task    63 has       2483 integration points.
  Task    64 has       2501 integration points.
  Task    65 has       2577 integration points.
  Task    66 has       2458 integration points.
  Task    67 has       2439 integration points.
  Task    68 has       2478 integration points.
  Task    69 has       2445 integration points.
  Task    70 has       2527 integration points.
  Task    71 has       2451 integration points.
  Task    72 has       2483 integration points.
  Task    73 has       2548 integration points.
  Task    74 has       2485 integration points.
  Task    75 has       2484 integration points.
  Task    76 has       2483 integration points.
  Task    77 has       2438 integration points.
  Task    78 has       2444 integration points.
  Task    79 has       2507 integration points.
  Initializing partition tables, free-atom densities, potentials, etc. across the integration grid (initialize_grid_storage).
  | initialize_grid_storage: Actual outermost partition radius vs. multipole_radius_free
  | (-- VB: in principle, multipole_radius_free should be larger, hence this output)
  | Species        1: Confinement radius =              6.000000000000000 AA, multipole_radius_free =              6.037996416842453 AA.
  | Species        1: outer_partition_radius set to              6.037996416842453 AA .
  | Species        2: Confinement radius =              6.000000000000000 AA, multipole_radius_free =              6.043738901464199 AA.
  | Species        2: outer_partition_radius set to              6.043738901464199 AA .
  | Original list of interatomic distances with         270 x        270 entries is created.
  | Net number of integration points:   199060
  | of which are non-zero points    :   168796
  | Numerical average free-atom electrostatic potential    :     -2.10764354 eV
  Renormalizing the initial density to the exact electron count on the 3D integration grid.
  | Initial density: Formal number of electrons (from input files) :     292.0000000000
  | Integrated number of electrons on 3D grid     :     292.0000969280
  | Charge integration error                      :       0.0000969280
  | Normalization factor for density and gradient :       0.9999996681
  Obtaining max. number of non-zero basis functions in each batch (get_n_compute_maxes).
  | Maximal number of non-zero basis functions:     2257 in task     0
  | Maximal number of non-zero basis functions:     2178 in task     1
  | Maximal number of non-zero basis functions:     2186 in task     2
  | Maximal number of non-zero basis functions:     2220 in task     3
  | Maximal number of non-zero basis functions:     2198 in task     4
  | Maximal number of non-zero basis functions:     2261 in task     5
  | Maximal number of non-zero basis functions:     2232 in task     6
  | Maximal number of non-zero basis functions:     2194 in task     7
  | Maximal number of non-zero basis functions:     2204 in task     8
  | Maximal number of non-zero basis functions:     2225 in task     9
  | Maximal number of non-zero basis functions:     2259 in task    10
  | Maximal number of non-zero basis functions:     2283 in task    11
  | Maximal number of non-zero basis functions:     2212 in task    12
  | Maximal number of non-zero basis functions:     2203 in task    13
  | Maximal number of non-zero basis functions:     2158 in task    14
  | Maximal number of non-zero basis functions:     2190 in task    15
  | Maximal number of non-zero basis functions:     2203 in task    16
  | Maximal number of non-zero basis functions:     2227 in task    17
  | Maximal number of non-zero basis functions:     2184 in task    18
  | Maximal number of non-zero basis functions:     2277 in task    19
  | Maximal number of non-zero basis functions:     2179 in task    20
  | Maximal number of non-zero basis functions:     2249 in task    21
  | Maximal number of non-zero basis functions:     2284 in task    22
  | Maximal number of non-zero basis functions:     2262 in task    23
  | Maximal number of non-zero basis functions:     2174 in task    24
  | Maximal number of non-zero basis functions:     2160 in task    25
  | Maximal number of non-zero basis functions:     2267 in task    26
  | Maximal number of non-zero basis functions:     2281 in task    27
  | Maximal number of non-zero basis functions:     2206 in task    28
  | Maximal number of non-zero basis functions:     2232 in task    29
  | Maximal number of non-zero basis functions:     2262 in task    30
  | Maximal number of non-zero basis functions:     2198 in task    31
  | Maximal number of non-zero basis functions:     2278 in task    32
  | Maximal number of non-zero basis functions:     2171 in task    33
  | Maximal number of non-zero basis functions:     2214 in task    34
  | Maximal number of non-zero basis functions:     2273 in task    35
  | Maximal number of non-zero basis functions:     2233 in task    36
  | Maximal number of non-zero basis functions:     2310 in task    37
  | Maximal number of non-zero basis functions:     2140 in task    38
  | Maximal number of non-zero basis functions:     2177 in task    39
  | Maximal number of non-zero basis functions:     2262 in task    40
  | Maximal number of non-zero basis functions:     2283 in task    41
  | Maximal number of non-zero basis functions:     2271 in task    42
  | Maximal number of non-zero basis functions:     2306 in task    43
  | Maximal number of non-zero basis functions:     2242 in task    44
  | Maximal number of non-zero basis functions:     2212 in task    45
  | Maximal number of non-zero basis functions:     2225 in task    46
  | Maximal number of non-zero basis functions:     2222 in task    47
  | Maximal number of non-zero basis functions:     2214 in task    48
  | Maximal number of non-zero basis functions:     2246 in task    49
  | Maximal number of non-zero basis functions:     2251 in task    50
  | Maximal number of non-zero basis functions:     2220 in task    51
  | Maximal number of non-zero basis functions:     2260 in task    52
  | Maximal number of non-zero basis functions:     2259 in task    53
  | Maximal number of non-zero basis functions:     2301 in task    54
  | Maximal number of non-zero basis functions:     2299 in task    55
  | Maximal number of non-zero basis functions:     2200 in task    56
  | Maximal number of non-zero basis functions:     2347 in task    57
  | Maximal number of non-zero basis functions:     2236 in task    58
  | Maximal number of non-zero basis functions:     2241 in task    59
  | Maximal number of non-zero basis functions:     2255 in task    60
  | Maximal number of non-zero basis functions:     2210 in task    61
  | Maximal number of non-zero basis functions:     2196 in task    62
  | Maximal number of non-zero basis functions:     2194 in task    63
  | Maximal number of non-zero basis functions:     2162 in task    64
  | Maximal number of non-zero basis functions:     2238 in task    65
  | Maximal number of non-zero basis functions:     2270 in task    66
  | Maximal number of non-zero basis functions:     2297 in task    67
  | Maximal number of non-zero basis functions:     2215 in task    68
  | Maximal number of non-zero basis functions:     2184 in task    69
  | Maximal number of non-zero basis functions:     2242 in task    70
  | Maximal number of non-zero basis functions:     2240 in task    71
  | Maximal number of non-zero basis functions:     2256 in task    72
  | Maximal number of non-zero basis functions:     2264 in task    73
  | Maximal number of non-zero basis functions:     2221 in task    74
  | Maximal number of non-zero basis functions:     2226 in task    75
  | Maximal number of non-zero basis functions:     2242 in task    76
  | Maximal number of non-zero basis functions:     2256 in task    77
  | Maximal number of non-zero basis functions:     2249 in task    78
  | Maximal number of non-zero basis functions:     2237 in task    79
  Allocating        2.869 MB for KS_eigenvector_complex
  Integrating Hamiltonian matrix: batch-based integration.
  Time summed over all CPUs for integration: real work       93.196 s, elapsed      103.327 s
  Integrating overlap matrix.
  Time summed over all CPUs for integration: real work       71.261 s, elapsed       79.118 s
  Decreasing sparse matrix size:
   Tolerance:  9.999999824516700E-014
   Hamiltonian matrix
  | Array has  1726859 nonzero elements out of  2086774 elements
  | Sparsity factor is 0.172
   Overlap matrix
  | Array has  1601140 nonzero elements out of  2086774 elements
  | Sparsity factor is 0.233
  New size of hamiltonian matrix:     1736543

  Updating Kohn-Sham eigenvalues and eigenvectors using ELSI and the ELPA eigensolver.
  Overlap matrix is nonsingular
  | Lowest eigenvalue of overlap  :  0.56E-04
  | Highest eigenvalue of overlap :  0.93E+01
  Finished singularity check of overlap matrix
  | Time :     0.053 s
  Finished Cholesky decomposition
  | Time :     0.014 s
  Finished transformation to standard eigenproblem
  | Time :     0.021 s
  Starting LAPACK eigensolver
  Finished solving standard eigenproblem
  | Time :     0.058 s
  Finished back-transformation of eigenvectors
  | Time :     0.007 s

  Obtaining occupation numbers and chemical potential using ELSI.
  | Chemical potential (Fermi level):    -4.84813160eV
  Writing Kohn-Sham eigenvalues.
  K-point:       1 at    0.000000    0.000000    0.000000 (in units of recip. lattice)

  State    Occupation    Eigenvalue [Ha]    Eigenvalue [eV]
      1       2.00000       -3153.120833       -85800.78337
      2       2.00000       -3153.120833       -85800.78337
      3       2.00000        -515.604845       -14030.32168
      4       2.00000        -515.604845       -14030.32168
      5       2.00000        -466.348247       -12689.98147
      6       2.00000        -466.348247       -12689.98147
      7       2.00000        -466.347512       -12689.96145
      8       2.00000        -466.347512       -12689.96145
      9       2.00000        -445.968252       -12135.41358
     10       2.00000        -445.968252       -12135.41358
     11       2.00000        -445.968252       -12135.41358
     12       2.00000        -445.968252       -12135.41358
     13       2.00000        -445.968247       -12135.41346
     14       2.00000        -445.968247       -12135.41345
     15       2.00000        -119.517151        -3252.22716
     16       2.00000        -119.517151        -3252.22716
     17       2.00000         -99.671497        -2712.19942
     18       2.00000         -99.671497        -2712.19942
     19       2.00000         -99.671497        -2712.19942
     20       2.00000         -99.671497        -2712.19942
     21       2.00000         -99.671461        -2712.19844
     22       2.00000         -99.671461        -2712.19844
     23       2.00000         -78.259750        -2129.55616
     24       2.00000         -78.259750        -2129.55616
     25       2.00000         -78.259750        -2129.55616
     26       2.00000         -78.259750        -2129.55616
     27       2.00000         -78.259729        -2129.55559
     28       2.00000         -78.259729        -2129.55559
     29       2.00000         -78.259729        -2129.55559
     30       2.00000         -78.259729        -2129.55559
     31       2.00000         -78.259721        -2129.55537
     32       2.00000         -78.259721        -2129.55537
     33       2.00000         -59.213453        -1611.28003
     34       2.00000         -59.213453        -1611.28003
     35       2.00000         -59.212700        -1611.25954
     36       2.00000         -59.212700        -1611.25954
     37       2.00000         -52.071943        -1416.94965
     38       2.00000         -52.071943        -1416.94965
     39       2.00000         -52.071943        -1416.94965
     40       2.00000         -52.071943        -1416.94965
     41       2.00000         -52.071930        -1416.94931
     42       2.00000         -52.071930        -1416.94931
     43       2.00000         -52.071194        -1416.92929
     44       2.00000         -52.071194        -1416.92929
     45       2.00000         -52.071194        -1416.92929
     46       2.00000         -52.071194        -1416.92929
     47       2.00000         -52.071179        -1416.92888
     48       2.00000         -52.071179        -1416.92888
     49       2.00000         -25.586168         -696.23505
     50       2.00000         -25.586168         -696.23505
     51       2.00000         -19.121534         -520.32342
     52       2.00000         -19.121534         -520.32342
     53       2.00000         -19.121534         -520.32342
     54       2.00000         -19.121534         -520.32342
     55       2.00000         -19.121328         -520.31780
     56       2.00000         -19.121328         -520.31780
     57       2.00000         -11.293626         -307.31520
     58       2.00000         -11.293626         -307.31520
     59       2.00000         -11.293626         -307.31520
     60       2.00000         -11.293626         -307.31520
     61       2.00000         -11.293457         -307.31061
     62       2.00000         -11.293457         -307.31061
     63       2.00000         -11.293457         -307.31061
     64       2.00000         -11.293457         -307.31061
     65       2.00000         -11.293362         -307.30800
     66       2.00000         -11.293362         -307.30800
     67       2.00000          -7.859706         -213.87347
     68       2.00000          -7.859706         -213.87347
     69       2.00000          -7.858812         -213.84916
     70       2.00000          -7.858812         -213.84916
     71       2.00000          -5.633768         -153.30261
     72       2.00000          -5.633768         -153.30261
     73       2.00000          -5.633767         -153.30261
     74       2.00000          -5.633767         -153.30261
     75       2.00000          -5.633609         -153.29829
     76       2.00000          -5.633608         -153.29828
     77       2.00000          -5.632869         -153.27817
     78       2.00000          -5.632869         -153.27817
     79       2.00000          -5.632869         -153.27817
     80       2.00000          -5.632869         -153.27817
     81       2.00000          -5.632676         -153.27292
     82       2.00000          -5.632676         -153.27292
     83       2.00000          -3.760464         -102.32743
     84       2.00000          -3.760464         -102.32743
     85       2.00000          -2.599386          -70.73288
     86       2.00000          -2.599386          -70.73288
     87       2.00000          -2.599331          -70.73141
     88       2.00000          -2.599331          -70.73141
     89       2.00000          -2.599247          -70.72912
     90       2.00000          -2.599247          -70.72912
     91       2.00000          -2.599247          -70.72912
     92       2.00000          -2.599247          -70.72912
     93       2.00000          -2.599049          -70.72372
     94       2.00000          -2.599049          -70.72372
     95       2.00000          -2.599049          -70.72372
     96       2.00000          -2.599049          -70.72372
     97       2.00000          -2.598956          -70.72119
     98       2.00000          -2.598956          -70.72119
     99       2.00000          -2.083621          -56.69821
    100       2.00000          -2.083621          -56.69821
    101       2.00000          -2.083621          -56.69821
    102       2.00000          -2.083621          -56.69820
    103       2.00000          -2.081908          -56.65160
    104       2.00000          -2.081908          -56.65159
    105       2.00000          -1.965621          -53.48726
    106       2.00000          -1.965621          -53.48726
    107       2.00000          -1.965559          -53.48559
    108       2.00000          -1.965559          -53.48559
    109       2.00000          -1.965318          -53.47902
    110       2.00000          -1.965318          -53.47902
    111       2.00000          -1.965314          -53.47892
    112       2.00000          -1.965314          -53.47892
    113       2.00000          -1.965205          -53.47596
    114       2.00000          -1.965202          -53.47588
    115       2.00000          -1.964607          -53.45967
    116       2.00000          -1.964607          -53.45967
    117       2.00000          -1.964606          -53.45965
    118       2.00000          -1.964606          -53.45965
    119       2.00000          -1.964355          -53.45282
    120       2.00000          -1.964355          -53.45282
    121       2.00000          -1.964355          -53.45282
    122       2.00000          -1.964355          -53.45282
    123       2.00000          -1.964223          -53.44922
    124       2.00000          -1.964223          -53.44922
    125       2.00000          -0.752044          -20.46416
    126       2.00000          -0.739641          -20.12666
    127       2.00000          -0.689645          -18.76619
    128       2.00000          -0.670241          -18.23818
    129       2.00000          -0.427341          -11.62854
    130       2.00000          -0.389446          -10.59737
    131       2.00000          -0.384334          -10.45825
    132       2.00000          -0.384334          -10.45825
    133       2.00000          -0.383030          -10.42277
    134       2.00000          -0.383030          -10.42277
    135       2.00000          -0.284848           -7.75111
    136       2.00000          -0.284848           -7.75110
    137       2.00000          -0.284210           -7.73374
    138       2.00000          -0.284210           -7.73374
    139       2.00000          -0.273455           -7.44110
    140       2.00000          -0.240496           -6.54423
    141       2.00000          -0.238968           -6.50266
    142       2.00000          -0.222158           -6.04522
    143       2.00000          -0.222158           -6.04522
    144       2.00000          -0.213871           -5.81971
    145       2.00000          -0.213870           -5.81970
    146       2.00000          -0.198014           -5.38824
    147       0.00000          -0.095580           -2.60086
    148       0.00000          -0.095580           -2.60086
    149       0.00000          -0.079653           -2.16748
    150       0.00000          -0.079653           -2.16748
    151       0.00000          -0.023069           -0.62773
    152       0.00000          -0.020486           -0.55746
    153       0.00000          -0.001162           -0.03163
    154       0.00000           0.006563            0.17859
    155       0.00000           0.067187            1.82824
    156       0.00000           0.088242            2.40120
    157       0.00000           0.102881            2.79953
    158       0.00000           0.102881            2.79954
    159       0.00000           0.109286            2.97383
    160       0.00000           0.109287            2.97384
    161       0.00000           0.213693            5.81488
    162       0.00000           0.225397            6.13337
    163       0.00000           0.225409            6.13368
    164       0.00000           0.232325            6.32189
    165       0.00000           0.271559            7.38950
    166       0.00000           0.271569            7.38976
    167       0.00000           0.283570            7.71632
    168       0.00000           0.294768            8.02104
    169       0.00000           0.315197            8.57695
    170       0.00000           0.321976            8.76142
    171       0.00000           0.321978            8.76145
    172       0.00000           0.322970            8.78846
    173       0.00000           0.322971            8.78848
    174       0.00000           0.364172            9.90962
    175       0.00000           0.364850            9.92806
    176       0.00000           0.375004           10.20437
    177       0.00000           0.375004           10.20437
    178       0.00000           0.409292           11.13741
    179       0.00000           0.412539           11.22574
    180       0.00000           0.412539           11.22575
    181       0.00000           0.428027           11.64720
    182       0.00000           0.497695           13.54296
    183       0.00000           0.499580           13.59428
    184       0.00000           0.499581           13.59429
    185       0.00000           0.566619           15.41850
    186       0.00000           0.566645           15.41920

  What follows are estimated values for band gap, HOMO, LUMO, etc.
  | They are estimated on a discrete k-point grid and not necessarily exact.
  | For converged numbers, create a DOS and/or band structure plot on a denser k-grid.

  Highest occupied state (VBM) at     -4.89005051 eV (relative to internal zero)
  | Occupation number:      2.00000000
  | K-point:     151 at    0.833333    0.055556    0.000000 (in units of recip. lattice)

  Lowest unoccupied state (CBM) at    -3.98923916 eV (relative to internal zero)
  | Occupation number:      0.00000000
  | K-point:     143 at    0.722222    0.277778    0.000000 (in units of recip. lattice)

  ESTIMATED overall HOMO-LUMO gap:      0.90081135 eV between HOMO at k-point 151 and LUMO at k-point 143
  | This appears to be an indirect band gap.
  | Smallest direct gap :      1.17473438 eV for k_point 63 at    0.722222    0.277778    0.000000 (in units of recip. lattice)
  The gap value is above 0.2 eV. Unless you are using a very sparse k-point grid,
  this system is most likely an insulator or a semiconductor.
  Calculating total energy contributions from superposition of free atom densities.

  Total energy components:
  | Sum of eigenvalues            :      -29683.96928643 Ha     -807741.90173933 eV
  | XC energy correction          :       -1072.45944239 Ha      -29183.10624741 eV
  | XC potential correction       :        1400.43097528 Ha       38107.66573403 eV
  | Free-atom electrostatic energy:      -18520.11511318 Ha     -503957.97332903 eV
  | Hartree energy correction     :           0.00000000 Ha           0.00000000 eV
  | Entropy correction            :          -0.00000000 Ha          -0.00000000 eV
  | ---------------------------
  | Total energy                  :      -47876.11286672 Ha    -1302775.31558174 eV
  | Total energy, T -> 0          :      -47876.11286672 Ha    -1302775.31558174 eV  <-- do not rely on this value for anything but (periodic) metals
  | Electronic free energy        :      -47876.11286672 Ha    -1302775.31558174 eV

  Derived energy quantities:
  | Kinetic energy                :       52586.66207648 Ha     1430955.88133472 eV
  | Electrostatic energy          :      -99390.31550082 Ha    -2704548.09066905 eV
  | Energy correction for multipole
  | error in Hartree potential    :           0.00000000 Ha           0.00000000 eV
  | Sum of eigenvalues per atom                           :     -134623.65028989 eV
  | Total energy (T->0) per atom                          :     -217129.21926362 eV  <-- do not rely on this value for anything but (periodic) metals
  | Electronic free energy per atom                       :     -217129.21926362 eV
  Initialize hartree_potential_storage
  Max. number of atoms included in rho_multipole:            6

  End scf initialization - timings             :  max(cpu_time)    wall_clock(cpu1)
  | Time for scf. initialization               :        4.388 s           4.381 s
  | Boundary condition initialization          :        0.980 s           0.973 s
  | Relaxation initialization                  :        0.004 s           0.001 s
  | Integration                                :        2.392 s           2.387 s
  | Solution of K.-S. eqns.                    :        0.604 s           0.603 s
  | Grid partitioning                          :        0.224 s           0.220 s
  | Preloading free-atom quantities on grid    :        0.016 s           0.014 s
  | Free-atom superposition energy             :        0.016 s           0.012 s
  | Total energy evaluation                    :        0.004 s           0.001 s

  Partial memory accounting:
  | Current value for overall tracked memory usage on task 0  :          37.601 MB
  | Peak value for overall tracked memory usage on task 0     :          95.162 MB after allocating wave
  | Largest tracked array allocation on task 0 so far         :          40.752 MB  when allocating hamiltonian_shell
  Note:  These values currently only include a subset of arrays which are explicitly tracked.
  The "true" memory usage will be greater.
------------------------------------------------------------

------------------------------------------------------------
          Begin self-consistency iteration #    1

  Date     :  20191128, Time     :  122609.466
------------------------------------------------------------
  Evaluating new KS density using the density matrix
  Evaluating density matrix
  Time summed over all CPUs for getting density from density matrix: real work      203.621 s, elapsed      224.958 s
  Integration grid: deviation in total charge (<rho> - N_e) =  -1.132321E-10
  Pulay mixing of updated and previous charge densities.

  Evaluating partitioned Hartree potential by multipole expansion.
  | Analytical far-field extrapolation by fixed multipoles:
  | Hartree multipole sum: apparent total charge =   0.111644E-03
  Summing up the Hartree potential.
  | Estimated reciprocal-space cutoff momentum G_max:         1.90186217 bohr^-1 .
  | Reciprocal lattice points for long-range Hartree potential:     870
  Time summed over all CPUs for potential: real work       14.473 s, elapsed       15.533 s
  | RMS charge density error from multipole expansion :   0.431899E-03
  | Average real-space part of the electrostatic potential :     -0.00062183 eV

  Integrating Hamiltonian matrix: batch-based integration.
  Time summed over all CPUs for integration: real work       90.706 s, elapsed      100.188 s

  Updating Kohn-Sham eigenvalues and eigenvectors using ELSI and the ELPA eigensolver.
  Finished Cholesky decomposition
  | Time :     0.014 s
  Finished transformation to standard eigenproblem
  | Time :     0.021 s
  Starting LAPACK eigensolver
  Finished solving standard eigenproblem
  | Time :     0.059 s
  Finished back-transformation of eigenvectors
  | Time :     0.005 s

  Obtaining occupation numbers and chemical potential using ELSI.
  | Chemical potential (Fermi level):    -4.93321667eV
  Writing Kohn-Sham eigenvalues.
  K-point:       1 at    0.000000    0.000000    0.000000 (in units of recip. lattice)

  State    Occupation    Eigenvalue [Ha]    Eigenvalue [eV]
      1       2.00000       -3153.140432       -85801.31669
      2       2.00000       -3153.140432       -85801.31669
      3       2.00000        -515.624257       -14030.84992
      4       2.00000        -515.624257       -14030.84992
      5       2.00000        -466.348091       -12689.97721
      6       2.00000        -466.348091       -12689.97721
      7       2.00000        -466.345964       -12689.91933
      8       2.00000        -466.345964       -12689.91933
      9       2.00000        -445.987722       -12135.94338
     10       2.00000        -445.987722       -12135.94338
     11       2.00000        -445.987718       -12135.94327
     12       2.00000        -445.987718       -12135.94327
     13       2.00000        -445.987718       -12135.94327
     14       2.00000        -445.987718       -12135.94327
     15       2.00000        -119.535266        -3252.72008
     16       2.00000        -119.535266        -3252.72008
     17       2.00000         -99.689596        -2712.69192
     18       2.00000         -99.689596        -2712.69192
     19       2.00000         -99.689596        -2712.69192
     20       2.00000         -99.689596        -2712.69192
     21       2.00000         -99.689576        -2712.69139
     22       2.00000         -99.689576        -2712.69139
     23       2.00000         -78.278089        -2130.05517
     24       2.00000         -78.278089        -2130.05517
     25       2.00000         -78.278089        -2130.05517
     26       2.00000         -78.278089        -2130.05517
     27       2.00000         -78.278015        -2130.05317
     28       2.00000         -78.278015        -2130.05317
     29       2.00000         -78.278015        -2130.05317
     30       2.00000         -78.278015        -2130.05317
     31       2.00000         -78.278003        -2130.05283
     32       2.00000         -78.278003        -2130.05283
     33       2.00000         -59.213558        -1611.28291
     34       2.00000         -59.213558        -1611.28291
     35       2.00000         -59.211469        -1611.22605
     36       2.00000         -59.211469        -1611.22605
     37       2.00000         -52.072020        -1416.95175
     38       2.00000         -52.072020        -1416.95175
     39       2.00000         -52.072020        -1416.95174
     40       2.00000         -52.072020        -1416.95174
     41       2.00000         -52.071983        -1416.95076
     42       2.00000         -52.071983        -1416.95076
     43       2.00000         -52.069929        -1416.89487
     44       2.00000         -52.069929        -1416.89487
     45       2.00000         -52.069929        -1416.89487
[...]
  | Sum of eigenvalues per atom                           :     -134665.20755850 eV
  | Total energy (T->0) per atom                          :     -217129.22448652 eV  <-- do not rely on this value for anything but (periodic) metals
  | Electronic free energy per atom                       :     -217129.22448652 eV

  atomic forces [eV/Ang]:
  -----------------------
  atom #    1
   Hellmann-Feynman              : -0.113011E-01  0.720826E-02  0.374414E+02
   Ionic forces                  :  0.000000E+00  0.000000E+00  0.000000E+00
   Multipole                     : -0.678310E-04  0.190103E-03 -0.821531E-02
   Pulay + GGA                   :  0.816905E-02 -0.534650E-02 -0.373821E+02
   Van der Waals                 : -0.159839E-05 -0.321102E-06 -0.555705E-01
   ----------------------------------------------------------------
   Total forces(   1)            : -0.320146E-02  0.205154E-02 -0.444427E-02
  atom #    2
   Hellmann-Feynman              :  0.162744E+00 -0.107305E+00  0.229544E+01
   Ionic forces                  :  0.000000E+00  0.000000E+00  0.000000E+00
   Multipole                     : -0.351727E-03  0.123748E-02  0.144981E+00
   Pulay + GGA                   : -0.153942E+00  0.101294E+00 -0.239192E+01
   Van der Waals                 : -0.302085E-04  0.198597E-04 -0.489637E-01
   ----------------------------------------------------------------
   Total forces(   2)            :  0.842008E-02 -0.475375E-02 -0.458539E-03
  atom #    3
   Hellmann-Feynman              : -0.850928E-02 -0.511718E-03 -0.355826E+02
   Ionic forces                  :  0.000000E+00  0.000000E+00  0.000000E+00
   Multipole                     : -0.847086E-04 -0.132027E-03  0.448793E-01
   Pulay + GGA                   :  0.358737E-02  0.363470E-02  0.355686E+02
   Van der Waals                 :  0.267801E-04 -0.181174E-04 -0.349554E-01
   ----------------------------------------------------------------
   Total forces(   3)            : -0.497983E-02  0.297284E-02 -0.404339E-02
  atom #    4
   Hellmann-Feynman              :  0.850996E-02  0.508948E-03  0.355825E+02
   Ionic forces                  :  0.000000E+00  0.000000E+00  0.000000E+00
   Multipole                     :  0.847292E-04  0.131996E-03 -0.448788E-01
   Pulay + GGA                   : -0.358847E-02 -0.363331E-02 -0.355685E+02
   Van der Waals                 : -0.267773E-04  0.181218E-04  0.349555E-01
   ----------------------------------------------------------------
   Total forces(   4)            :  0.497944E-02 -0.297425E-02  0.401750E-02
  atom #    5
   Hellmann-Feynman              : -0.162786E+00  0.107354E+00 -0.229481E+01
   Ionic forces                  :  0.000000E+00  0.000000E+00  0.000000E+00
   Multipole                     :  0.351731E-03 -0.123757E-02 -0.144983E+00
   Pulay + GGA                   :  0.153980E+00 -0.101342E+00  0.239136E+01
   Van der Waals                 :  0.302137E-04 -0.198671E-04  0.489635E-01
   ----------------------------------------------------------------
   Total forces(   5)            : -0.842400E-02  0.475436E-02  0.530532E-03
  atom #    6
   Hellmann-Feynman              :  0.113059E-01 -0.721196E-02 -0.374415E+02
   Ionic forces                  :  0.000000E+00  0.000000E+00  0.000000E+00
   Multipole                     :  0.678540E-04 -0.190126E-03  0.821548E-02
   Pulay + GGA                   : -0.817163E-02  0.534934E-02  0.373821E+02
   Van der Waals                 :  0.159038E-05  0.324036E-06  0.555705E-01
   ----------------------------------------------------------------
   Total forces(   6)            :  0.320369E-02 -0.205242E-02  0.443997E-02


  Analytical stress tensor components [eV]         xx                  yy                  zz                  xy                  xz                  yz
  -----------------------------------------------------------------------------------------------------------------------------------------------------------
    Nuclear Hellmann-Feynman      :    -0.5212085081E+02   -0.5210421377E+02   -0.3416881131E+02    0.1803148991E-01   -0.1432548614E-01    0.7246507751E-02
    Multipole Hellmann-Feynman    :    -0.1640366657E+03   -0.1640065706E+03   -0.1125100569E+03    0.3332759618E-01   -0.2807272067E-01    0.1276222332E-01
    On-site Multipole corrections :    -0.1267709587E+02   -0.1267689993E+02   -0.1267729120E+02    0.2735958839E-07    0.1103323971E-06   -0.1101561561E-04
    Strain deriv. of the orbitals :     0.2274751708E+03    0.2274318663E+03    0.1588050384E+03   -0.4821984180E-01    0.3685740907E-01   -0.1683740467E-01
    vdW correction   :     0.1355709994E+01    0.1356639096E+01    0.7874615229E+00    0.7999612114E-03    0.1001746959E-03   -0.5369788080E-04
  -----------------------------------------------------------------------------------------------------------------------------------------------------------
  Sum of all contributions        :    -0.3731646497E-02    0.8210923278E-03    0.2363405165E+00    0.3939232868E-02   -0.5440512717E-02    0.3106612905E-02

  +-------------------------------------------------------------------+
  |              Analytical stress tensor - Symmetrized               |
  |                  Cartesian components [eV/A**3]                   |
  +-------------------------------------------------------------------+
  |                x                y                z                |
  |                                                                   |
  |  x        -0.00000309       0.00000326      -0.00000450           |
  |  y         0.00000326       0.00000068       0.00000257           |
  |  z        -0.00000450       0.00000257       0.00019550           |
  |                                                                   |
  |  Pressure:      -0.00006436   [eV/A**3]                           |
  |                                                                   |
  +-------------------------------------------------------------------+

 * Warning: Stress tensor is anisotropic. Be aware that pressure is an isotropic quantity.

  Timings for VdW correction (Tkatchenko-Scheffler 2009 or later):
  | CPU time:        1.532 s, Wall clock time:        1.530 s.
  Removing unitary transformations (pure translations, rotations) from forces on atoms.
  Atomic forces before filtering:
  | Net force on center of mass :  -0.208153E-05 -0.168552E-05  0.417970E-04 eV/A
  Removing unitary transformations (rotations) from forces on lattice.
  Lattice forces before filtering:
  | Net torque relative to origin:  -0.166876E-19 -0.106689E-19 -0.116801E-39 eV
  Atomic forces after filtering:
  | Net force on center of mass :  -0.696899E-18  0.000000E+00  0.000000E+00 eV/A
  Lattice forces after filtering:
  | Net torque relative to origin:  -0.166876E-19 -0.106689E-19 -0.116801E-39 eV

  Energy and forces in a compact form:
  | Total energy uncorrected      :         -0.130277534691913E+07 eV
  | Total energy corrected        :         -0.130277534691913E+07 eV  <-- do not rely on this value for anything but (periodic) metals
  | Electronic free energy        :         -0.130277534691913E+07 eV
  Total atomic forces (unitary forces cleaned) [eV/Ang]:
  |   1         -0.320111787344416E-02          0.205181984460889E-02         -0.445123779925944E-02
  |   2          0.842042732880071E-02         -0.475347247582217E-02         -0.465505503855424E-03
  |   3         -0.497948678092283E-02          0.297311947756222E-02         -0.405035850119163E-02
  |   4          0.497979168467605E-02         -0.297396765103099E-02          0.401053620001048E-02
  |   5         -0.842365586027666E-02          0.475464028802767E-02          0.523565579390885E-03
  |   6          0.320404150116689E-02         -0.205213948334563E-02          0.443300002490513E-02

  ------------------------------------ 
  Start decomposition of the XC Energy 
  ------------------------------------ 
  X and C from original XC functional choice 
  Hartree-Fock Energy :          0.000000000 Ha              0.000000000 eV
  X Energy            :      -1055.840304063 Ha         -28730.876484461 eV
  C Energy            :        -16.308443839 Ha           -443.775335889 eV
  Total XC Energy     :      -1072.148747902 Ha         -29174.651820350 eV
  ------------------------------------ 
  LDA X and C from self-consistent density 
  X Energy LDA        :      -1009.060167669 Ha         -27457.924206063 eV
  C Energy LDA        :        -28.627537531 Ha           -778.994931054 eV
  ------------------------------------ 
  End decomposition of the XC Energy 
  ------------------------------------ 

------------------------------------------------------------
  Relaxation / MD: End force evaluation.       :  max(cpu_time)    wall_clock(cpu1)
  | Time for this force evaluation             :      122.900 s         123.223 s

------------------------------------------------------------
  Geometry optimization: Attempting to predict improved coordinates.

  +-------------------------------------------------------------------+
  | Generalized derivatives on lattice vectors [eV/A]                 |
  +-------------------------------------------------------------------+
  |lattice_vector      -0.00039006       0.00118122      -0.00097610  |
  |lattice_vector       0.00121744       0.00025376       0.00096012  |
  |lattice_vector      -0.00005441       0.00003107       0.00236342  |
  +-------------------------------------------------------------------+
  | Forces on lattice vectors cleaned from atomic contributions [eV/A]|
  +-------------------------------------------------------------------+
  |lattice_vector      -0.00079294      -0.00056772       0.00124848  |
  |lattice_vector      -0.00003475      -0.00086714      -0.00123154  |
  |lattice_vector      -0.00000292      -0.00002226      -0.00188071  |
  +-------------------------------------------------------------------+
  | Projected forces for shape relaxation  [eV/A]                     |
  +-------------------------------------------------------------------+
  |lattice_vector      -0.00079294      -0.00000000       0.00000000  |
  |lattice_vector       0.00036680      -0.00063531      -0.00000000  |
  |lattice_vector       0.00000000       0.00000000      -0.00188071  |
  +-------------------------------------------------------------------+
  Removing unitary transformations (pure translations, rotations) from forces on atoms.
  Atomic forces before filtering:
  | Net force on center of mass :  -0.696899E-18  0.000000E+00  0.000000E+00 eV/A
  Removing unitary transformations (rotations) from forces on lattice.
  Lattice forces before filtering:
  | Net torque relative to origin:   0.000000E+00  0.127947E-35 -0.693604E-55 eV
  Atomic forces after filtering:
  | Net force on center of mass :  -0.696899E-18  0.000000E+00  0.000000E+00 eV/A
  Lattice forces after filtering:
  | Net torque relative to origin:   0.000000E+00  0.127947E-35 -0.693604E-55 eV
  || Forces on lattice vectors || =   0.188071E-02 eV/A.
  Net remaining forces (excluding translations, rotations) in present geometry:
  Maximum force component is  0.842366E-02 eV/A.
  Present geometry is converged.

------------------------------------------------------------
  Final atomic structure:
                         x [A]             y [A]             z [A]
  lattice_vector         3.73621314        0.00000000       -0.00000000
  lattice_vector        -1.86811164        3.23566426        0.00000000
  lattice_vector        -0.00000000       -0.00000000       99.99947806

            atom         1.86730445       -1.07799177        3.94304103  Se
            atom        -0.00127258        0.00088717        2.62069265  Pt
            atom        -1.86872475        1.07904029        1.32090541  Se
            atom         1.86872484       -1.07904022       -1.32090342  Se
            atom         0.00127268       -0.00088729       -2.62069398  Pt
            atom        -1.86730464        1.07799182       -3.94304169  Se

  Fractional coordinates:
                         L1                L2                L3
       atom_frac         0.33320519       -0.33315934        0.03943062  Se
       atom_frac        -0.00020351        0.00027419        0.02620706  Pt
       atom_frac        -0.33342331        0.33348339        0.01320912  Se
       atom_frac         0.33342334       -0.33348337       -0.01320910  Se
       atom_frac         0.00020352       -0.00027422       -0.02620708  Pt
       atom_frac        -0.33320524        0.33315936       -0.03943062  Se
------------------------------------------------------------

------------------------------------------------------------------------------
  Final output of selected total energy values:

  The following output summarizes some interesting total energy values
  at the end of a run (AFTER all relaxation, molecular dynamics, etc.).

  | Total energy of the DFT / Hartree-Fock s.c.f. calculation      :       -1302775.346919131 eV
  | Final zero-broadening corrected energy (caution - metals only) :       -1302775.346919131 eV
  | For reference only, the value of 1 Hartree used in FHI-aims is :             27.211384500 eV

  Before relying on these values, please be sure to understand exactly which
  total energy value is referred to by a given number. Different objects may
  all carry the same name 'total energy'. Definitions:

  Total energy of the DFT / Hartree-Fock s.c.f. calculation:
  | Note that this energy does not include ANY quantities calculated after the
  | s.c.f. cycle, in particular not ANY RPA, MP2, etc. many-body perturbation terms.

  Final zero-broadening corrected energy:
  | For metallic systems only, a broadening of the occupation numbers at the Fermi
  | level can be extrapolated back to zero broadening by an electron-gas inspired
  | formula. For all systems that are not real metals, this value can be
  | meaningless and should be avoided.

------------------------------------------------------------------------------
  Methods described in the following list of references were used in this FHI-aims run.
  If you publish the results, please make sure to cite these reference if they apply.
  FHI-aims is an academic code, and for our developers (often, Ph.D. students
  and postdocs), scientific credit in the community is essential.
  Thank you for helping us!

  For any use of FHI-aims, please cite:

    Volker Blum, Ralf Gehrke, Felix Hanke, Paula Havu, Ville Havu,
    Xinguo Ren, Karsten Reuter, and Matthias Scheffler
    'Ab initio molecular simulations with numeric atom-centered orbitals'
    Computer Physics Communications 180, 2175-2196 (2009)
    http://dx.doi.org/10.1016/j.cpc.2009.06.022


  For the analytical stress tensor used in your run, please cite:

    Franz Knuth, Christian Carbogno, Viktor Atalla, Volker Blum, Matthias Scheffler
    'All-electron formalism for total energy strain derivatives and
    stress tensor components for numeric atom-centered orbitals'
    Computer Physics Communications 190, 33-50 (2015).
    http://dx.doi.org/10.1016/j.cpc.2015.01.003


  The scalable eigensolver library ELPA was used in your run.
  ELPA is essential especially for large systems on hundreds or thousands of CPUs.
  For ELPA, please cite:

    Andreas Marek, Volker Blum, Rainer Johanni, Ville Havu, Bruno Lang,
    Thomas Auckenthaler, Alexander Heinecke, Hans-Joachim Bungartz, and Hermann Lederer,
    'The ELPA Library - Scalable Parallel Eigenvalue Solutions
    for Electronic Structure Theory and Computational Science'
    The Journal of Physics: Condensed Matter 26, 213201 (2014).
    http://dx.doi.org/10.1088/0953-8984/26/21/213201


  The ELSI infrastructure was used in your run to solve the Kohn-Sham electronic structure.
  Please check out http://elsi-interchange.org to learn more.
  If scalability is important for your project, please acknowledge ELSI by citing:

    V. W-z. Yu, F. Corsetti, A. Garcia, W. P. Huhn, M. Jacquelin, W. Jia,
    B. Lange, L. Lin, J. Lu, W. Mi, A. Seifitokaldani, A. Vazquez-Mayagoitia,
    C. Yang, H. Yang, and V. Blum
    'ELSI: A unified software interface for Kohn-Sham electronic structure solvers'
    Computer Physics Communications 222, 267-285 (2018).
    http://dx.doi.org/10.1016/j.cpc.2017.09.007


  For the real-space grid partitioning and parallelization used in this calculation, please cite:

    Ville Havu, Volker Blum, Paula Havu, and Matthias Scheffler,
    'Efficient O(N) integration for all-electron electronic structure calculation'
    'using numerically tabulated basis functions'
    Journal of Computational Physics 228, 8367-8379 (2009).
    http://dx.doi.org/10.1016/j.jcp.2009.08.008

  Of course, there are many other important community references, e.g., those cited in the
  above references. Our list is limited to references that describe implementations in the
  FHI-aims code. The reason is purely practical (length of this list) - please credit others as well.

   One or more s.c.f. cycles took more than 50 s.c.f. iterations.
   It might be worth adjusting your convergence settings. For example,
   metals need a larger broadening and a smaller "charge_mix_param" value than semiconductors.

------------------------------------------------------------
          Leaving FHI-aims.
          Date     :  20191128, Time     :  124943.830

          Computational steps:
          | Number of self-consistency cycles          :          190
          | Number of SCF (re)initializations          :            8
          | Number of relaxation steps                 :            7

          Detailed time accounting                     :  max(cpu_time)    wall_clock(cpu1)
          | Total time                                 :     1420.376 s        1419.389 s
          | Preparation time                           :        0.544 s           0.544 s
          | Boundary condition initalization           :        7.760 s           7.705 s
          | Grid partitioning                          :        1.680 s           1.666 s
          | Preloading free-atom quantities on grid    :        0.788 s           0.775 s
          | Free-atom superposition energy             :        0.124 s           0.108 s
          | Total time for integrations                :      247.272 s         246.612 s
          | Total time for solution of K.-S. equations :       85.152 s          84.786 s
          | Total time for EV reorthonormalization     :        0.676 s           0.503 s
          | Total time for density & force components  :      993.024 s         991.651 s
          | Total time for mixing & preconditioning    :        9.424 s           9.240 s
          | Total time for Hartree multipole update    :        0.796 s           0.520 s
          | Total time for Hartree multipole sum       :       62.268 s          61.819 s
          | Total time for total energy evaluation     :        0.764 s           0.170 s
          | Total time for scaled ZORA corrections     :        0.000 s           0.000 s
          | Total time for vdW correction              :       12.208 s          12.184 s

          Partial memory accounting:
          | Residual value for overall tracked memory usage across tasks :           0.000 MB (should be 0.000 MB)
          | Peak values for overall tracked memory usage (after allocating wave_pulay):
          |   Minimum:      139.426 MB (on task 63)
          |   Maximum:      149.263 MB (on task 58)
          |   Average:      143.222 MB
          | Largest tracked array allocation (hamiltonian_shell):
          |   Minimum:       37.810 MB (on task 15)
          |   Maximum:       44.067 MB (on task 58)
          |   Average:       40.243 MB
          Note:  These values currently only include a subset of arrays which are explicitly tracked.
          The "true" memory usage will be greater.

          Have a nice day.
------------------------------------------------------------
