  MPI-parallelism will be employed.
------------------------------------------------------------
          Invoking FHI-aims ...
          Version 171221_1
          Compiled on 2018/11/06 at 11:18:49 on host headnode.

          When using FHI-aims, please cite the following reference:

          Volker Blum, Ralf Gehrke, Felix Hanke, Paula Havu,
          Ville Havu, Xinguo Ren, Karsten Reuter, and Matthias Scheffler,
          'Ab Initio Molecular Simulations with Numeric Atom-Centered Orbitals',
          Computer Physics Communications 180, 2175-2196 (2009)

          For any questions about FHI-aims, please visit the aimsclub website
          with its forums and wiki. Contributions to both the forums and the
          wiki are warmly encouraged - they are for you, and everyone is welcome there.

------------------------------------------------------------



  Date     :  20191129, Time     :  105442.349
  Time zero on CPU 1             :   0.440000000000000E+00  s.
  Internal wall clock time zero  :           344256882.349  s.

  FHI-aims created a unique identifier for this run for later identification
  aims_uuid : 8A2C72AF-F6CC-4520-A687-CFE565FE78DE

  Using       80 parallel tasks.
  Task        0 on host t031 reporting.
  Task        1 on host t031 reporting.
  Task        2 on host t031 reporting.
  Task        3 on host t031 reporting.
  Task        4 on host t031 reporting.
  Task        5 on host t031 reporting.
  Task        6 on host t031 reporting.
  Task        7 on host t031 reporting.
  Task        8 on host t031 reporting.
  Task        9 on host t031 reporting.
  Task       10 on host t031 reporting.
  Task       11 on host t031 reporting.
  Task       12 on host t031 reporting.
  Task       13 on host t031 reporting.
  Task       14 on host t031 reporting.
  Task       15 on host t031 reporting.
  Task       16 on host t031 reporting.
  Task       17 on host t031 reporting.
  Task       18 on host t031 reporting.
  Task       19 on host t031 reporting.
  Task       20 on host t030 reporting.
  Task       21 on host t030 reporting.
  Task       22 on host t030 reporting.
  Task       23 on host t030 reporting.
  Task       24 on host t030 reporting.
  Task       25 on host t030 reporting.
  Task       26 on host t030 reporting.
  Task       27 on host t030 reporting.
  Task       28 on host t030 reporting.
  Task       29 on host t030 reporting.
  Task       30 on host t030 reporting.
  Task       31 on host t030 reporting.
  Task       32 on host t030 reporting.
  Task       33 on host t030 reporting.
  Task       34 on host t030 reporting.
  Task       35 on host t030 reporting.
  Task       36 on host t030 reporting.
  Task       37 on host t030 reporting.
  Task       38 on host t030 reporting.
  Task       39 on host t030 reporting.
  Task       40 on host t029 reporting.
  Task       41 on host t029 reporting.
  Task       42 on host t029 reporting.
  Task       43 on host t029 reporting.
  Task       44 on host t029 reporting.
  Task       45 on host t029 reporting.
  Task       46 on host t029 reporting.
  Task       47 on host t029 reporting.
  Task       48 on host t029 reporting.
  Task       49 on host t029 reporting.
  Task       50 on host t029 reporting.
  Task       51 on host t029 reporting.
  Task       52 on host t029 reporting.
  Task       53 on host t029 reporting.
  Task       54 on host t029 reporting.
  Task       55 on host t029 reporting.
  Task       56 on host t029 reporting.
  Task       57 on host t029 reporting.
  Task       58 on host t029 reporting.
  Task       59 on host t029 reporting.
  Task       60 on host t024 reporting.
  Task       61 on host t024 reporting.
  Task       62 on host t024 reporting.
  Task       63 on host t024 reporting.
  Task       64 on host t024 reporting.
  Task       65 on host t024 reporting.
  Task       66 on host t024 reporting.
  Task       67 on host t024 reporting.
  Task       68 on host t024 reporting.
  Task       69 on host t024 reporting.
  Task       70 on host t024 reporting.
  Task       71 on host t024 reporting.
  Task       72 on host t024 reporting.
  Task       73 on host t024 reporting.
  Task       74 on host t024 reporting.
  Task       75 on host t024 reporting.
  Task       76 on host t024 reporting.
  Task       77 on host t024 reporting.
  Task       78 on host t024 reporting.
  Task       79 on host t024 reporting.

  Performing system and environment tests:
  | Environment variable OMP_NUM_THREADS correctly set to 1.
  | Stacksize not measured: no C compiler
  | Checking for scalapack...
  | Testing pdtran()...
  | All pdtran() tests passed.

  Obtaining array dimensions for all initial allocations:
  
  -----------------------------------------------------------------------
  Parsing control.in (first pass over file, find array dimensions only).
  The contents of control.in will be repeated verbatim below
  unless switched off by setting 'verbatim_writeout .false.' .
  in the first line of control.in .
  -----------------------------------------------------------------------
  
  #===============================================================================
  # FHI-aims file: ./control.in
  # Created using the Atomic Simulation Environment (ASE)
  # Wed Nov 27 20:14:31 2019
  #
  # List of parameters used to initialize the calculator:
  #     relativistic : ('atomic_zora', 'scalar')
  #     k_grid : [18, 18, 18]
  #     adjust_scf : once 2
  #     xc : pbe
  #     species_dir : /chemsoft/FHI-aims/stable/species_defaults/tight
  #     spin : none
  #===============================================================================
  relativistic                       atomic_zora scalar
  k_grid                             18 18 18
  adjust_scf                         once 2
  charge_mix_param 0.02
  ### geometry optimisation section
  relax_geometry    bfgs    1E-2
  relax_unit_cell       fixed_angles
  xc                                 pbe
  many_body_dispersion
  spin                               none
  #===============================================================================
  
  ################################################################################
  #
  #  FHI-aims code project
  # Volker Blum, Fritz Haber Institute Berlin, 2009
  #
  #  Suggested "tight" defaults for Mo atom (to be pasted into control.in file)
  #
  ################################################################################
    species        Mo
  #     global species definitions
      nucleus             42
      mass                95.94
  #
      l_hartree           6
  #
      cut_pot             4.0  2.0  1.0
      basis_dep_cutoff    1e-4
  #
      radial_base         59 7.0
      radial_multiplier   2
      angular_grids specified
        division   0.3117   50
        division   0.6750  110
        division   1.0351  194
        division   1.2073  302
        division   1.6402  434
  #      division   1.9185  590
  #      division   2.0237  770
  #      division   2.0980  974
  #      division   2.7972 1202
  #      outer_grid  974
        outer_grid  434
  ################################################################################
  #
  #  Definition of "minimal" basis
  #
  ################################################################################
  #     valence basis states
      valence      5  s   1.
      valence      4  p   6.
      valence      4  d   5.
  #     ion occupancy
      ion_occ     5  s   0.
      ion_occ     4  p   6.
      ion_occ     4  d   4.
  ################################################################################
  #
  #  Suggested additional basis functions. For production calculations,
  #  uncomment them one after another (the most important basis functions are
  #  listed first).
  #
  #  Constructed for dimers: 1.675 A, 1.9 A, 2.375 A, 3.00 A, 4.00 A
  #
  ################################################################################
  #  "First tier"  - max. impr. -711.23  meV, min. impr. -21.07 meV
       hydro 4 f 8.4
       hydro 3 d 2.8
       ionic 5 p auto
       hydro 5 g 12
       ionic 5 s auto
  #  "Second tier" - max. impr. -39.38  meV, min. impr. -2.68 meV
       hydro 4 f 12.4
       hydro 3 d 3.3
       hydro 6 h 17.2
       hydro 4 f 7.6
       hydro 3 p 3.0
       hydro 1 s 0.65
  #  "Third tier"  - max. impr. -5.50 meV, min. impr. -0.47 meV
  #     hydro 4 f 29.2
  #     hydro 5 g 11.2
  #     hydro 3 d 6.8
  #     hydro 6 h 14.8
  #     hydro 2 p 2.3
  #     hydro 4 s 3.8
  #  "Fourth tier"  - max. impr. -0.58 meV, min. impr. -0.19 meV
  #     hydro 5 f 6.8
  #     hydro 5 d 14.8
  #     hydro 6 s 7.8
  #     hydro 5 g 20.8
  #     hydro 5 d 10.4
  #     hydro 5 p 9.8
  #  Further functions - -0.17 meV and below
  #     hydro 5 d 3.2
  ################################################################################
  #
  #  FHI-aims code project
  # Volker Blum, Fritz Haber Institute Berlin, 2009
  #
  #  Suggested "tight" defaults for Se atom (to be pasted into control.in file)
  #
  ################################################################################
    species        Se
  #     global species definitions
      nucleus             34
      mass                78.96
  #
      l_hartree           6
  #
      cut_pot             4.0          2.0  1.0
      basis_dep_cutoff    1e-4
  #
      radial_base         55 7.0
      radial_multiplier   2
      angular_grids       specified
        division   0.0830  110
        division   0.1357  194
        division   0.7377  302
        division   0.8610  434
  #      division   0.9640  590
  #      division   1.0773  770
  #      division   2.5539  974
  #      outer_grid  974
        outer_grid  434
  ################################################################################
  #
  #  Definition of "minimal" basis
  #
  ################################################################################
  #     valence basis states
      valence      4  s   2.
      valence      4  p   4.
      valence      3  d  10.
  #     ion occupancy
      ion_occ      4  s   1.
      ion_occ      4  p   3.
      ion_occ      3  d  10.
  ################################################################################
  #
  #  Suggested additional basis functions. For production calculations,
  #  uncomment them one after another (the most important basis functions are
  #  listed first).
  #
  #  Constructed for dimers: 1.85 A, 2.15 A, 2.50 A, 3.00 A, 4.00 A
  #
  ################################################################################
  #  "First tier" - improvements: -336.21 meV to -36.85 meV
       hydro 3 d 4.3
       hydro 2 p 1.6
       hydro 4 f 7.2
       ionic 4 s auto
  #  "Second tier" - improvements: -14.39 meV to -1.49 meV
       hydro 5 g 10.4
       hydro 4 p 4.5
       hydro 4 d 6.2
       hydro 4 f 11.2
       hydro 1 s 0.65
       hydro 6 h 15.2
  #  "Third tier" - improvements: -0.46 meV and below
  #     hydro 5 g 14.4
  #     ionic 4 d auto
  #     hydro 4 f 22.4
  #     hydro 5 f 7.4
  #     hydro 5 p 8
  #     hydro 5 s 9.4
  #  "Fourth tier" - improvements: -0.12 meV and below
  #     hydro 5 d 11.6
  #     hydro 6 h 18
  #     hydro 4 p 4
  #     hydro 5 f 16
  #     hydro 4 s 3.9
  #
  #
  
  -----------------------------------------------------------------------
  Completed first pass over input file control.in .
  -----------------------------------------------------------------------
  
  
  -----------------------------------------------------------------------
  Parsing geometry.in (first pass over file, find array dimensions only).
  The contents of geometry.in will be repeated verbatim below
  unless switched off by setting 'verbatim_writeout .false.' .
  in the first line of geometry.in .
  -----------------------------------------------------------------------
  
  #=======================================================
  # FHI-aims file: ./geometry.in
  # Created using the Atomic Simulation Environment (ASE)
  # Wed Nov 27 20:14:31 2019
  #=======================================================
  lattice_vector 3.2900000000000000 0.0000000000000000 0.0000000000000000
  lattice_vector -1.6450000000000000 2.8492235799999999 0.0000000000000000
  lattice_vector 0.0000000000000000 0.0000000000000000 12.9100000000000001
  atom -0.0000000000000000 1.8994823900000000 3.2275000000000000 Mo
  atom 1.6450000000000000 0.9497411900000000 9.6824999999999992 Mo
  atom -0.0000000000000000 1.8994823900000000 11.3414350000000006 Se
  atom 1.6450000000000000 0.9497411900000000 4.8864349999999996 Se
  atom 1.6450000000000000 0.9497411900000000 1.5685650000000000 Se
  atom -0.0000000000000000 1.8994823900000000 8.0235649999999996 Se
  
  -----------------------------------------------------------------------
  Completed first pass over input file geometry.in .
  -----------------------------------------------------------------------
  

  Basic array size parameters:
  | Number of species                 :        2
  | Number of atoms                   :        6
  | Number of lattice vectors         :        3
  | Max. basis fn. angular momentum   :        5
  | Max. atomic/ionic basis occupied n:        5
  | Max. number of basis fn. types    :        3
  | Max. radial fns per species/type  :       10
  | Max. logarithmic grid size        :     1436
  | Max. radial integration grid size :      119
  | Max. angular integration grid size:      434
  | Max. angular grid division number :        8
  | Radial grid for Hartree potential :     1436
  | Number of spin channels           :        1

------------------------------------------------------------
          Reading file control.in.
------------------------------------------------------------
  Scalar relativistic treatment of kinetic energy: on-site free-atom approximation to ZORA.
  Found k-point grid:        18        18        18
  S.C.F. convergence parameters will be adjusted in iteration number     2 of the first full s.c.f. cycle only.
  Charge density mixing - mixing parameter:     0.0200
  Geometry relaxation: Modified BFGS - TRM (trust radius method, i.e., trusted quadratic extrapolation).
  Convergence accuracy for geometry relaxation: Maximum force <   0.100000E-01 eV/A.
  XC: Using PBE gradient-corrected functionals.
  Using the default MBD implementation with analytical forces
  Spin treatment: No spin polarisation.
 
  Reading configuration options for species Mo                  .
  | Found nuclear charge :  42.0000
  | Found atomic mass :    95.9400000000000      amu
  | Found l_max for Hartree potential  :   6
  | Found cutoff potl. onset [A], width [A], scale factor :    4.00000    2.00000    1.00000
  | Threshold for basis-dependent cutoff potential is   0.100000E-03
  | Found data for basic radial integration grid :    59 points, outermost radius =    7.000 A
  | Found multiplier for basic radial grid :   2
  | Found angular grid specification: user-specified.
  | Specified grid contains     6 separate shells.
  | Check grid settings after all constraints further below.
  | Found free-atom valence shell :  5 s   1.000
  | Found free-atom valence shell :  4 p   6.000
  | Found free-atom valence shell :  4 d   5.000
  | Found free-ion valence shell :  5 s   0.000
  | Found free-ion valence shell :  4 p   6.000
  | Found free-ion valence shell :  4 d   4.000
  | Found hydrogenic basis function :  4 f   8.400
  | Found hydrogenic basis function :  3 d   2.800
  | Found ionic basis function :  5 p , default cutoff radius.
  | Found hydrogenic basis function :  5 g  12.000
  | Found ionic basis function :  5 s , default cutoff radius.
  | Found hydrogenic basis function :  4 f  12.400
  | Found hydrogenic basis function :  3 d   3.300
  | Found hydrogenic basis function :  6 h  17.200
  | Found hydrogenic basis function :  4 f   7.600
  | Found hydrogenic basis function :  3 p   3.000
  | Found hydrogenic basis function :  1 s   0.650
  Species Mo                  : Missing cutoff potential type.
  Defaulting to exp(1/x)/(1-x)^2 type cutoff potential.
  Species Mo: No 'logarithmic' tag. Using default grid for free atom:
  | Default logarithmic grid data [bohr] : 0.1000E-03 0.1000E+03 0.1012E+01
  | Will include ionic basis functions of  2.0-fold positive Mo                   ion.
  Species Mo: On-site basis accuracy parameter (for Gram-Schmidt orthonormalisation) not specified.
  Using default value basis_acc =  0.1000000E-03.
  Species Mo                  : Using default innermost maximum threshold i_radial=  2 for radial functions.
  Species Mo                  : Default cutoff onset for free atom density etc. : 0.40000000E+01 AA.
  Species Mo                  : Basic radial grid will be enhanced according to radial_multiplier =   2, to contain   119 grid points.
 
  Reading configuration options for species Se                  .
  | Found nuclear charge :  34.0000
  | Found atomic mass :    78.9600000000000      amu
  | Found l_max for Hartree potential  :   6
  | Found cutoff potl. onset [A], width [A], scale factor :    4.00000    2.00000    1.00000
  | Threshold for basis-dependent cutoff potential is   0.100000E-03
  | Found data for basic radial integration grid :    55 points, outermost radius =    7.000 A
  | Found multiplier for basic radial grid :   2
  | Found angular grid specification: user-specified.
  | Specified grid contains     5 separate shells.
  | Check grid settings after all constraints further below.
  | Found free-atom valence shell :  4 s   2.000
  | Found free-atom valence shell :  4 p   4.000
  | Found free-atom valence shell :  3 d  10.000
  | Found free-ion valence shell :  4 s   1.000
  | Found free-ion valence shell :  4 p   3.000
  | Found free-ion valence shell :  3 d  10.000
  | Found hydrogenic basis function :  3 d   4.300
  | Found hydrogenic basis function :  2 p   1.600
  | Found hydrogenic basis function :  4 f   7.200
  | Found ionic basis function :  4 s , default cutoff radius.
  | Found hydrogenic basis function :  5 g  10.400
  | Found hydrogenic basis function :  4 p   4.500
  | Found hydrogenic basis function :  4 d   6.200
  | Found hydrogenic basis function :  4 f  11.200
  | Found hydrogenic basis function :  1 s   0.650
  | Found hydrogenic basis function :  6 h  15.200
  Species Se                  : Missing cutoff potential type.
  Defaulting to exp(1/x)/(1-x)^2 type cutoff potential.
  Species Se: No 'logarithmic' tag. Using default grid for free atom:
  | Default logarithmic grid data [bohr] : 0.1000E-03 0.1000E+03 0.1012E+01
  | Will include ionic basis functions of  2.0-fold positive Se                   ion.
  Species Se: On-site basis accuracy parameter (for Gram-Schmidt orthonormalisation) not specified.
  Using default value basis_acc =  0.1000000E-03.
  Species Se                  : Using default innermost maximum threshold i_radial=  2 for radial functions.
  Species Se                  : Default cutoff onset for free atom density etc. : 0.40000000E+01 AA.
  Species Se                  : Basic radial grid will be enhanced according to radial_multiplier =   2, to contain   111 grid points.
  | MBD: Using the same k-grid sampling as DFT
 
  Finished reading input file 'control.in'. Consistency checks are next.
 
  MPI_IN_PLACE appears to work with this MPI implementation.
  | Keeping use_mpi_in_place .true. (see manual).
  Target number of points in a grid batch is not set. Defaulting to  100
  Method for grid partitioning is not set. Defaulting to parallel hash+maxmin partitioning.
  Batch size limit is not set. Defaulting to    200
  By default, will store active basis functions for each batch.
  If in need of memory, prune_basis_once .false. can be used to disable this option.
  communication_type for Hartree potential was not specified.
  Defaulting to calc_hartree .
  Defaulting to Pulay charge density mixer.
  Pulay mixer: Number of relevant iterations not set.
  Defaulting to    8 iterations.
  Pulay mixer: Number of initial linear mixing iterations not set.
  Defaulting to    0 iterations.
  Work space size for distributed Hartree potential not set.
  Defaulting to   0.200000E+03 MB.
  Algorithm-dependent basis array size parameters:
  | n_max_pulay                         :        8
 * Notice: The s.c.f. convergence criterion sc_accuracy_rho was not provided.
 * We used to stop in this case, and ask the user to provide reasonable
 * scf convergence criteria. However, this led some users to employ criteria
 * that led to extremely long run times, e.g., for simple relaxation.
 * We now preset a default value for sc_accuracy_rho if it is not set.
 * You may still wish to check if this setting is too tight or too loose for your needs.
 * Based on n_atoms, FHI-aims chose sc_accuracy_rho =  0.100000E-05 .
  Maximum number of self-consistency iterations not provided.
  Presetting  1000 iterations.
  Presetting      1001 iterations before the initial mixing cycle
  is restarted anyway using the sc_init_iter criterion / keyword.
  Presetting a factor      1.000 between actual scf density residual
  and density convergence criterion sc_accuracy_rho below which sc_init_iter
  takes no effect.
 * No s.c.f. convergence criteria (sc_accuracy_*) were provided in control.in.
 * The run will proceed with a reasonable default guess, but please check whether.
 * the s.c.f. cycles seem to take too much or too little time.
  No maximum number of relaxation steps, defaulting to     1000
  Default initial Hessian is Lindh matrix (thres = 15.00) plus  0.200000E+01 eV/A^2 times unity.
  No maximum energy tolerance for TRM/BFGS moves, defaulting to   0.200000E-03
  No harmonic length scale. Defaulting to   0.250000E-01 A.
  No trust radius initializer. Defaulting to   0.200000E+00 A.
  Unit cell relaxation: Restricted relaxation with fixed angles between lattice vectors.
  Unit cell relaxation: Analytical stress will be used.
  Analytical stress will be computed.
  Analytical stress calculation: Only the upper triangle is calculated.
                                 Final output is symmetrized.
  Analytical stress calculation: scf convergence accuracy of stress not set.
                                 Analytical stress self-consistency will not be checked explicitly.
                                 Be sure to set other criteria like sc_accuracy_rho tight enough.
  Force calculation: scf convergence accuracy of forces not set.
  Defaulting to 'sc_accuracy_forces not_checked'.
  Handling of forces: Unphysical translation and rotation will be removed from forces.
  No accuracy limit for integral partition fn. given. Defaulting to  0.1000E-14.
  No threshold value for u(r) in integrations given. Defaulting to  0.1000E-05.
  No occupation type (smearing scheme) given. Defaulting to Gaussian broadening, width =  0.1000E-01 eV.
  The width will be adjusted in iteration number     2 of the first full s.c.f. cycle only.
  S.C.F. convergence parameters will be adjusted in iteration number     2 of the first full s.c.f. cycle only.
  No accuracy for occupation numbers given. Defaulting to  0.1000E-12.
  No threshold value for occupation numbers given. Defaulting to  0.0000E+00.
  No accuracy for fermi level given. Defaulting to  0.1000E-19.
  Maximum # of iterations to find E_F not set. Defaulting to  200.
  Preferred method for the eigenvalue solver ('KS_method') not specified in 'control.in'.
  Defaulting to serial version, 'lapack_fast', since more k-points than CPUs available.
  Will not use alltoall communication since running on < 1024 CPUs.
  Threshold for basis singularities not set.
  Default threshold for basis singularities:  0.1000E-04
  partition_type (choice of integration weights) for integrals was not specified.
  | Using a version of the partition function of Stratmann and coworkers ('stratmann_smoother').
  | At each grid point, the set of atoms used to build the partition table is smoothly restricted to
  | only those atoms whose free-atom density would be non-zero at that grid point.
  Partitioning for Hartree potential was not defined. Using partition_type for integrals.
  | Adjusted default value of keyword multip_moments_threshold to:       0.10000000E-11
  | This value may affect high angular momentum components of the Hartree potential in periodic systems.
  Angular momentum expansion for Kerker preconditioner not set explicitly.
  | Using default value of   0
  No explicit requirement for turning off preconditioner.
  | By default, it will be turned off when the charge convergence reaches
  | sc_accuracy_rho  =   0.100000E-05
  No special mixing parameter while Kerker preconditioner is on.
  Using default: charge_mix_param =     0.0200.
  No q(lm)/r^(l+1) cutoff set for long-range Hartree potential.
  | Using default value of  0.100000E-09 .
  | Verify using the multipole_threshold keyword.
  Defaulting to new monopole extrapolation.
  Density update method: automatic selection selected.
  Using density matrix based charge density update.
  Using density matrix based charge density update.
  Using packed matrix style: index .
  Geometry relaxation: A file "geometry.in.next_step" is written out by default after each step.
  | This file contains the geometry of the current relaxation step as well as
  | the current Hessian matrix needed to restart the relaxation algorithm.
  | If you do not want part or all of this information, use the keywords
  | "write_restart_geometry" or "hessian_to_restart_geometry" to switch the output off.
  Defaulting to use time-reversal symmetry for k-point grid.
------------------------------------------------------------


------------------------------------------------------------
          Reading geometry description geometry.in.
------------------------------------------------------------
  Input structure read successfully.
  The structure contains        6 atoms,  and a total of        220.000 electrons.

  Input geometry:
  | Unit cell:
  |        3.29000000        0.00000000        0.00000000
  |       -1.64500000        2.84922358        0.00000000
  |        0.00000000        0.00000000       12.91000000
  | Atomic structure:
  |       Atom                x [A]            y [A]            z [A]
  |    1: Species Mo            0.00000000        1.89948239        3.22750000
  |    2: Species Mo            1.64500000        0.94974119        9.68250000
  |    3: Species Se            0.00000000        1.89948239       11.34143500
  |    4: Species Se            1.64500000        0.94974119        4.88643500
  |    5: Species Se            1.64500000        0.94974119        1.56856500
  |    6: Species Se            0.00000000        1.89948239        8.02356500

  Lattice parameters for 3D lattice (in Angstroms) :     3.290000    3.290000   12.910000
  Angle(s) between unit vectors (in degrees)      :    90.000000   90.000000  120.000000

  |

  | The smallest distance between any two atoms is         2.52192360 AA.
  |
  | The first atom of this pair is atom number                      2 .
  | The second atom of this pair is atom number                     6 .
  | Wigner-Seitz cell of the first atom image           1     0     0 .
  | (The Wigner-Seitz cell of the second atom is 0 0 0  by definition.)

  Quantities derived from the lattice vectors:
  | Reciprocal lattice vector 1:  1.909783  1.102614  0.000000
  | Reciprocal lattice vector 2: -0.000000  2.205227  0.000000
  | Reciprocal lattice vector 3:  0.000000  0.000000  0.486691
  | Unit cell volume                               :   0.121018E+03  A^3

  Range separation radius for Ewald summation (hartree_convergence_parameter):      3.89934452 bohr.

  Fractional coordinates:
                         L1                L2                L3
       atom_frac         0.33333333        0.66666667        0.25000000  Mo
       atom_frac         0.66666667        0.33333333        0.75000000  Mo
       atom_frac         0.33333333        0.66666667        0.87850000  Se
       atom_frac         0.66666667        0.33333333        0.37850000  Se
       atom_frac         0.66666667        0.33333333        0.12150000  Se
       atom_frac         0.33333333        0.66666667        0.62150000  Se

  Number of empty states per atom not set in control.in - providing a guess from actual geometry.
  | Total number of empty states used during s.c.f. cycle:       33
  If you use a very high smearing, use empty_states (per atom!) in control.in to increase this value.

  Structure-dependent array size parameters: 
  | Maximum number of distinct radial functions  :       39
  | Maximum number of basis functions            :      446
  | Number of Kohn-Sham states (occupied + empty):      143
------------------------------------------------------------

------------------------------------------------------------
          Preparing all fixed parts of the calculation.
------------------------------------------------------------
  Determining machine precision:
    2.225073858507201E-308
  Setting up grids for atomic and cluster calculations.

  Creating wave function, potential, and density for free atoms.

  Species: Mo

  List of occupied orbitals and eigenvalues:
    n    l              occ      energy [Ha]    energy [eV]
    1    0           2.0000      -745.344654    -20281.8600
    2    0           2.0000      -103.288246     -2810.6162
    3    0           2.0000       -17.516687      -476.6533
    4    0           2.0000        -2.358559       -64.1796
    5    0           1.0000        -0.145159        -3.9500
    2    1           6.0000       -92.308627     -2511.8455
    3    1           6.0000       -13.936005      -379.2180
    4    1           6.0000        -1.408138       -38.3174
    3    2          10.0000        -8.119011      -220.9295
    4    2           5.0000        -0.132984        -3.6187


  Species: Se

  List of occupied orbitals and eigenvalues:
    n    l              occ      energy [Ha]    energy [eV]
    1    0           2.0000      -466.337810    -12689.6975
    2    0           2.0000       -59.202598     -1610.9847
    3    0           2.0000        -7.847116      -213.5309
    4    0           2.0000        -0.634372       -17.2621
    2    1           6.0000       -52.061107     -1416.6548
    3    1           6.0000        -5.620941      -152.9536
    4    1           4.0000        -0.238469        -6.4891
    3    2          10.0000        -1.951949       -53.1152

  Creating fixed part of basis set: Ionic, confined, hydrogenic.
 
  Mo                   ion:

  List of free ionic orbitals and eigenvalues:
    n    l      energy [Ha]    energy [eV]
    1    0      -746.048685    -20301.0176
    2    0      -103.980912     -2829.4646
    3    0       -18.206601      -495.4268
    4    0        -3.040545       -82.7374
    2    1       -93.001013     -2530.6863
    3    1       -14.625827      -397.9890
    4    1        -2.084855       -56.7318
    3    2        -8.808854      -239.7011
    4    2        -0.765435       -20.8285


  List of ionic basis orbitals and eigenvalues:
    n    l      energy [Ha]    energy [eV]    outer radius [A]
    5    1        -0.465587       -12.6693       5.456393
    5    0        -0.650331       -17.6964       5.390095

 
  Mo                   hydrogenic:
 
  List of hydrogenic basis orbitals: 
    n    l      effective z      eigenvalue [eV]  inner max. [A]     outer max. [A]     outer radius [A]   
    4    3         8.400000       -60.0010           1.009788           1.009788           4.487018
    3    2         2.800000       -11.8048           1.687401           1.687401           5.456393
    5    4        12.000000       -78.3687           1.100005           1.100005           4.432498
    4    3        12.400000      -130.7506           0.682864           0.682864           3.428897
    3    2         3.300000       -16.4532           1.439455           1.439455           5.456393
    6    5        17.200000      -111.8085           1.113535           1.113535           4.169676
    4    3         7.600000       -49.1164           1.113535           1.113535           4.828511
    3    1         3.000000       -13.5316           0.528251           2.102736           5.456393
    1    0         0.650000        -5.7375           0.810333           0.810333           5.456393
 
 
  Se                   ion:

  List of free ionic orbitals and eigenvalues:
    n    l      energy [Ha]    energy [eV]
    1    0      -467.261007    -12714.8189
    2    0       -60.104893     -1635.5374
    3    0        -8.743714      -237.9286
    4    0        -1.414053       -38.4783
    2    1       -52.964156     -1441.2280
    3    1        -6.516916      -177.3343
    4    1        -0.961869       -26.1738
    3    2        -2.844511       -77.4031


  List of ionic basis orbitals and eigenvalues:
    n    l      energy [Ha]    energy [eV]    outer radius [A]
    4    0        -1.414046       -38.4782       4.083166

 
  Se                   hydrogenic:
 
  List of hydrogenic basis orbitals: 
    n    l      effective z      eigenvalue [eV]  inner max. [A]     outer max. [A]     outer radius [A]   
    3    2         4.300000       -27.9518           1.103845           1.103845           5.278265
    2    1         1.600000        -8.6828           1.326010           1.326010           5.475439
    4    3         7.200000       -44.0822           1.173422           1.173422           4.965294
    5    4        10.400000       -58.8635           1.278259           1.278259           4.904963
    4    1         4.500000       -16.9509           0.333121           2.727671           5.475439
    4    2         6.200000       -32.6848           0.577455           1.800022           5.408909
    4    3        11.200000      -106.6686           0.755651           0.755651           3.657749
    1    0         0.650000        -5.7375           0.813162           0.813162           5.408909
    6    5        15.200000       -87.3182           1.247385           1.247385           4.614127
 

  Adding cutoff potential to free-atom effective potential.
  Creating atomic-like basis functions for current effective potential.

  Species Mo                  :

  List of atomic basis orbitals and eigenvalues:
    n    l      energy [Ha]    energy [eV]    outer radius [A]
    1    0      -745.344654    -20281.8600       0.247552
    2    0      -103.288246     -2810.6162       0.682864
    3    0       -17.516687      -476.6533       1.626637
    4    0        -2.358559       -64.1796       4.220963
    5    0        -0.145159        -3.9500       5.456393
    2    1       -92.308627     -2511.8455       0.699766
    3    1       -13.936005      -379.2180       1.793761
    4    1        -1.408138       -38.3174       4.828511
    3    2        -8.119011      -220.9295       2.181285
    4    2        -0.132984        -3.6187       5.390095


  Species Se                  :

  List of atomic basis orbitals and eigenvalues:
    n    l      energy [Ha]    energy [eV]    outer radius [A]
    1    0      -466.337810    -12689.6975       0.309561
    2    0       -59.202598     -1610.9847       0.885812
    3    0        -7.847116      -213.5309       2.355489
    4    0        -0.634372       -17.2621       5.214131
    2    1       -52.061107     -1416.6548       0.907737
    3    1        -5.620941      -152.9536       2.694529
    4    1        -0.238469        -6.4891       5.408909
    3    2        -1.951949       -53.1152       4.083166

  Assembling full basis from fixed parts.
  | Species Mo :   atomic orbital   1 s accepted.
  | Species Mo :   atomic orbital   2 s accepted.
  | Species Mo :   atomic orbital   3 s accepted.
  | Species Mo :   atomic orbital   4 s accepted.
  | Species Mo :    ionic orbital   5 s accepted.
  | Species Mo :   atomic orbital   5 s accepted.
  | Species Mo :    hydro orbital   1 s accepted.
  | Species Mo :   atomic orbital   2 p accepted.
  | Species Mo :   atomic orbital   3 p accepted.
  | Species Mo :   atomic orbital   4 p accepted.
  | Species Mo :    ionic orbital   5 p accepted.
  | Species Mo :    hydro orbital   3 p accepted.
  | Species Mo :   atomic orbital   3 d accepted.
  | Species Mo :   atomic orbital   4 d accepted.
  | Species Mo :    hydro orbital   3 d accepted.
  | Species Mo :    hydro orbital   3 d accepted.
  | Species Mo :    hydro orbital   4 f accepted.
  | Species Mo :    hydro orbital   4 f accepted.
  | Species Mo :    hydro orbital   4 f accepted.
  | Species Mo :    hydro orbital   5 g accepted.
  | Species Mo :    hydro orbital   6 h accepted.
  | Species Se :   atomic orbital   1 s accepted.
  | Species Se :   atomic orbital   2 s accepted.
  | Species Se :   atomic orbital   3 s accepted.
  | Species Se :    ionic orbital   4 s accepted.
  | Species Se :   atomic orbital   4 s accepted.
  | Species Se :    hydro orbital   1 s accepted.
  | Species Se :   atomic orbital   2 p accepted.
  | Species Se :   atomic orbital   3 p accepted.
  | Species Se :   atomic orbital   4 p accepted.
  | Species Se :    hydro orbital   2 p accepted.
  | Species Se :    hydro orbital   4 p accepted.
  | Species Se :   atomic orbital   3 d accepted.
  | Species Se :    hydro orbital   3 d accepted.
  | Species Se :    hydro orbital   4 d accepted.
  | Species Se :    hydro orbital   4 f accepted.
  | Species Se :    hydro orbital   4 f accepted.
  | Species Se :    hydro orbital   5 g accepted.
  | Species Se :    hydro orbital   6 h accepted.
 
  Basis size parameters after reduction:
  | Total number of radial functions:       39
  | Total number of basis functions :      446
 
  Per-task memory consumption for arrays in subroutine allocate_ext:
  |          14.349272MB.
  Testing on-site integration grid accuracy.
  |  Species  Function  <phi|h_atom|phi> (log., in eV)  <phi|h_atom|phi> (rad., in eV)
           1        1             -20281.8599610543             -20281.8584300616
           1        2              -2810.6161812280              -2810.6161551921
           1        3               -476.6533163555               -476.6533136395
           1        4                -64.1796433667                -64.1796426456
           1        5                 -3.3691762756                 -3.3691802887
           1        6                  4.4704608512                  4.4699102345
           1        7                 47.6285199283                 47.6283663304
           1        8              -2511.8455406047              -2511.8455385741
           1        9               -379.2179896350               -379.2179882338
           1       10                -38.3173891619                -38.3173886619
           1       11                  0.2493245095                  0.2492931069
           1       12                 12.9899978429                 12.9896957264
           1       13               -220.9295301098               -220.9295297081
           1       14                 -3.6195697699                 -3.6195754704
           1       15                  7.1428000922                  7.1426882355
           1       16                 20.1860643586                 20.1854440119
           1       17                 39.6800378350                 39.6800378704
           1       18                 41.9987405107                 41.9987406673
           1       19                 51.4938078473                 51.4938137886
           1       20                 50.2449608881                 50.2449608586
           1       21                 84.8920029004                 84.8920028797
           2       22             -12689.6974611609             -12689.6967666984
           2       23              -1610.9846578580              -1610.9846472470
           2       24               -213.5308789869               -213.5308777267
           2       25                -17.0464428502                -17.0464426496
           2       26                  6.7356859379                  6.7356842047
           2       27                 16.3222979729                 16.3222286215
           2       28              -1416.6548010133              -1416.6548002108
           2       29               -152.9535734377               -152.9535727493
           2       30                 -6.4896265677                 -6.4896303794
           2       31                  5.2703037283                  5.2701679583
           2       32                 24.5827617535                 24.5824715668
           2       33                -53.1152220964                -53.1152219035
           2       34                  7.6186674138                  7.6186665630
           2       35                 26.7015845260                 26.7015708238
           2       36                 49.4570230857                 49.4570230427
           2       37                 39.6372293866                 39.6372304734
           2       38                 42.1067201496                 42.1067200432
           2       39                 70.4166767372                 70.4166768848

  Preparing densities etc. for the partition functions (integrals / Hartree potential).

  Preparations completed.
  max(cpu_time)          :      0.492 s.
  Wall clock time (cpu1) :      0.489 s.
------------------------------------------------------------

------------------------------------------------------------
          Begin self-consistency loop: Initialization.

          Date     :  20191129, Time     :  105442.917
------------------------------------------------------------

  Initializing index lists of integration centers etc. from given atomic structure:
  Mapping all atomic coordinates to central unit cell.

  Initializing the k-points
          Using symmetry for reducing the k-points
  | k-points reduced from:     5832 to     2920
  | Number of k-points                             :      2920
  The eigenvectors in the calculations are COMPLEX.
  | K-points in task   0:        36
  | K-points in task   1:        37
  | K-points in task   2:        37
  | K-points in task   3:        37
  | K-points in task   4:        37
  | K-points in task   5:        37
  | K-points in task   6:        37
  | K-points in task   7:        37
  | K-points in task   8:        37
  | K-points in task   9:        37
  | K-points in task  10:        37
  | K-points in task  11:        37
  | K-points in task  12:        37
  | K-points in task  13:        37
  | K-points in task  14:        37
  | K-points in task  15:        37
  | K-points in task  16:        37
  | K-points in task  17:        37
  | K-points in task  18:        37
  | K-points in task  19:        37
  | K-points in task  20:        37
  | K-points in task  21:        37
  | K-points in task  22:        37
  | K-points in task  23:        37
  | K-points in task  24:        37
  | K-points in task  25:        37
  | K-points in task  26:        37
  | K-points in task  27:        37
  | K-points in task  28:        37
  | K-points in task  29:        37
  | K-points in task  30:        37
  | K-points in task  31:        37
  | K-points in task  32:        37
  | K-points in task  33:        37
  | K-points in task  34:        37
  | K-points in task  35:        37
  | K-points in task  36:        37
  | K-points in task  37:        37
  | K-points in task  38:        37
  | K-points in task  39:        37
  | K-points in task  40:        37
  | K-points in task  41:        36
  | K-points in task  42:        36
  | K-points in task  43:        36
  | K-points in task  44:        36
  | K-points in task  45:        36
  | K-points in task  46:        36
  | K-points in task  47:        36
  | K-points in task  48:        36
  | K-points in task  49:        36
  | K-points in task  50:        36
  | K-points in task  51:        36
  | K-points in task  52:        36
  | K-points in task  53:        36
  | K-points in task  54:        36
  | K-points in task  55:        36
  | K-points in task  56:        36
  | K-points in task  57:        36
  | K-points in task  58:        36
  | K-points in task  59:        36
  | K-points in task  60:        36
  | K-points in task  61:        36
  | K-points in task  62:        36
  | K-points in task  63:        36
  | K-points in task  64:        36
  | K-points in task  65:        36
  | K-points in task  66:        36
  | K-points in task  67:        36
  | K-points in task  68:        36
  | K-points in task  69:        36
  | K-points in task  70:        36
  | K-points in task  71:        36
  | K-points in task  72:        36
  | K-points in task  73:        36
  | K-points in task  74:        36
  | K-points in task  75:        36
  | K-points in task  76:        36
  | K-points in task  77:        36
  | K-points in task  78:        36
  | K-points in task  79:        36
  | Number of basis functions in the Hamiltonian integrals :     10588
  | Number of basis functions in a single unit cell        :       446
  | Number of centers in hartree potential         :      1328
  | Number of centers in hartree multipole         :       760
  | Number of centers in electron density summation:       550
  | Number of centers in basis integrals           :       618
  | Number of centers in integrals                 :       226
  | Number of centers in hamiltonian               :       550
  | Consuming       7391 KiB for k_phase.
  | Number of super-cells (origin) [n_cells]                     :         845
  | Number of super-cells (after PM_index) [n_cells]             :         162
  | Number of super-cells in hamiltonian [n_cells_in_hamiltonian]:         162
  | Size of matrix packed + index [n_hamiltonian_matrix_size] :     2839833
  Initializing relaxation algorithms.
  Partitioning the integration grid into batches with parallel hashing+maxmin method.
  | Number of batches:     2369
  | Maximal batch size:     107
  | Minimal batch size:      49
  | Average batch size:      80.620
  | Standard deviation of batch sizes:      17.036

  Integration load balanced across    80 MPI tasks.
  Work distribution over tasks is as follows:
  Task     0 has       2372 integration points.
  Task     1 has       2370 integration points.
  Task     2 has       2391 integration points.
  Task     3 has       2371 integration points.
  Task     4 has       2377 integration points.
  Task     5 has       2376 integration points.
  Task     6 has       2394 integration points.
  Task     7 has       2391 integration points.
  Task     8 has       2418 integration points.
  Task     9 has       2415 integration points.
  Task    10 has       2417 integration points.
  Task    11 has       2374 integration points.
  Task    12 has       2422 integration points.
  Task    13 has       2412 integration points.
  Task    14 has       2380 integration points.
  Task    15 has       2371 integration points.
  Task    16 has       2372 integration points.
  Task    17 has       2369 integration points.
  Task    18 has       2408 integration points.
  Task    19 has       2379 integration points.
  Task    20 has       2373 integration points.
  Task    21 has       2397 integration points.
  Task    22 has       2394 integration points.
  Task    23 has       2370 integration points.
  Task    24 has       2379 integration points.
  Task    25 has       2456 integration points.
  Task    26 has       2373 integration points.
  Task    27 has       2370 integration points.
  Task    28 has       2400 integration points.
  Task    29 has       2394 integration points.
  Task    30 has       2377 integration points.
  Task    31 has       2412 integration points.
  Task    32 has       2396 integration points.
  Task    33 has       2395 integration points.
  Task    34 has       2382 integration points.
  Task    35 has       2372 integration points.
  Task    36 has       2377 integration points.
  Task    37 has       2415 integration points.
  Task    38 has       2375 integration points.
  Task    39 has       2377 integration points.
  Task    40 has       2365 integration points.
  Task    41 has       2403 integration points.
  Task    42 has       2376 integration points.
  Task    43 has       2374 integration points.
  Task    44 has       2458 integration points.
  Task    45 has       2365 integration points.
  Task    46 has       2397 integration points.
  Task    47 has       2380 integration points.
  Task    48 has       2372 integration points.
  Task    49 has       2394 integration points.
  Task    50 has       2409 integration points.
  Task    51 has       2380 integration points.
  Task    52 has       2408 integration points.
  Task    53 has       2368 integration points.
  Task    54 has       2412 integration points.
  Task    55 has       2413 integration points.
  Task    56 has       2375 integration points.
  Task    57 has       2366 integration points.
  Task    58 has       2375 integration points.
  Task    59 has       2367 integration points.
  Task    60 has       2418 integration points.
  Task    61 has       2374 integration points.
  Task    62 has       2386 integration points.
  Task    63 has       2377 integration points.
  Task    64 has       2368 integration points.
  Task    65 has       2369 integration points.
  Task    66 has       2364 integration points.
  Task    67 has       2415 integration points.
  Task    68 has       2399 integration points.
  Task    69 has       2403 integration points.
  Task    70 has       2412 integration points.
  Task    71 has       2369 integration points.
  Task    72 has       2373 integration points.
  Task    73 has       2377 integration points.
  Task    74 has       2398 integration points.
  Task    75 has       2365 integration points.
  Task    76 has       2390 integration points.
  Task    77 has       2371 integration points.
  Task    78 has       2374 integration points.
  Task    79 has       2366 integration points.
  Initializing partition tables, free-atom densities, potentials, etc. across the integration grid (initialize_grid_storage).
  | initialize_grid_storage: Actual outermost partition radius vs. multipole_radius_free
  | (-- VB: in principle, multipole_radius_free should be larger, hence this output)
  | Species        1: Confinement radius =              6.000000000000000 AA, multipole_radius_free =              6.016994434057369 AA.
  | Species        1: outer_partition_radius set to              6.016994434057369 AA .
  | Species        2: Confinement radius =              6.000000000000000 AA, multipole_radius_free =              6.037996416842453 AA.
  | Species        2: outer_partition_radius set to              6.037996416842453 AA .
  | Original list of interatomic distances with         618 x        618 entries is created.
  | Net number of integration points:   190988
  | of which are non-zero points    :   158316
  | Numerical average free-atom electrostatic potential    :    -19.26396359 eV
  Renormalizing the initial density to the exact electron count on the 3D integration grid.
  | Initial density: Formal number of electrons (from input files) :     220.0000000000
  | Integrated number of electrons on 3D grid     :     219.9998366741
  | Charge integration error                      :      -0.0001633259
  | Normalization factor for density and gradient :       1.0000007424
  Obtaining max. number of non-zero basis functions in each batch (get_n_compute_maxes).
  | Maximal number of non-zero basis functions:     2203 in task     0
  | Maximal number of non-zero basis functions:     2072 in task     1
  | Maximal number of non-zero basis functions:     2060 in task     2
  | Maximal number of non-zero basis functions:     2102 in task     3
  | Maximal number of non-zero basis functions:     2098 in task     4
  | Maximal number of non-zero basis functions:     2148 in task     5
  | Maximal number of non-zero basis functions:     2118 in task     6
  | Maximal number of non-zero basis functions:     2129 in task     7
  | Maximal number of non-zero basis functions:     2105 in task     8
  | Maximal number of non-zero basis functions:     2069 in task     9
  | Maximal number of non-zero basis functions:     2126 in task    10
  | Maximal number of non-zero basis functions:     2088 in task    11
  | Maximal number of non-zero basis functions:     2088 in task    12
  | Maximal number of non-zero basis functions:     2129 in task    13
  | Maximal number of non-zero basis functions:     2136 in task    14
  | Maximal number of non-zero basis functions:     2083 in task    15
  | Maximal number of non-zero basis functions:     2126 in task    16
  | Maximal number of non-zero basis functions:     2071 in task    17
  | Maximal number of non-zero basis functions:     2155 in task    18
  | Maximal number of non-zero basis functions:     2093 in task    19
  | Maximal number of non-zero basis functions:     2169 in task    20
  | Maximal number of non-zero basis functions:     2112 in task    21
  | Maximal number of non-zero basis functions:     2170 in task    22
  | Maximal number of non-zero basis functions:     2171 in task    23
  | Maximal number of non-zero basis functions:     2225 in task    24
  | Maximal number of non-zero basis functions:     2150 in task    25
  | Maximal number of non-zero basis functions:     2107 in task    26
  | Maximal number of non-zero basis functions:     2179 in task    27
  | Maximal number of non-zero basis functions:     2099 in task    28
  | Maximal number of non-zero basis functions:     2121 in task    29
  | Maximal number of non-zero basis functions:     2113 in task    30
  | Maximal number of non-zero basis functions:     2118 in task    31
  | Maximal number of non-zero basis functions:     2131 in task    32
  | Maximal number of non-zero basis functions:     2121 in task    33
  | Maximal number of non-zero basis functions:     2139 in task    34
  | Maximal number of non-zero basis functions:     2219 in task    35
  | Maximal number of non-zero basis functions:     2119 in task    36
  | Maximal number of non-zero basis functions:     2122 in task    37
  | Maximal number of non-zero basis functions:     2134 in task    38
  | Maximal number of non-zero basis functions:     2155 in task    39
  | Maximal number of non-zero basis functions:     2100 in task    40
  | Maximal number of non-zero basis functions:     2096 in task    41
  | Maximal number of non-zero basis functions:     2130 in task    42
  | Maximal number of non-zero basis functions:     2124 in task    43
  | Maximal number of non-zero basis functions:     2219 in task    44
  | Maximal number of non-zero basis functions:     2157 in task    45
  | Maximal number of non-zero basis functions:     2127 in task    46
  | Maximal number of non-zero basis functions:     2109 in task    47
  | Maximal number of non-zero basis functions:     2100 in task    48
  | Maximal number of non-zero basis functions:     2069 in task    49
  | Maximal number of non-zero basis functions:     2069 in task    50
  | Maximal number of non-zero basis functions:     2116 in task    51
  | Maximal number of non-zero basis functions:     2129 in task    52
  | Maximal number of non-zero basis functions:     2225 in task    53
  | Maximal number of non-zero basis functions:     2125 in task    54
  | Maximal number of non-zero basis functions:     2115 in task    55
  | Maximal number of non-zero basis functions:     2136 in task    56
  | Maximal number of non-zero basis functions:     2069 in task    57
  | Maximal number of non-zero basis functions:     2143 in task    58
  | Maximal number of non-zero basis functions:     2093 in task    59
  | Maximal number of non-zero basis functions:     2116 in task    60
  | Maximal number of non-zero basis functions:     2115 in task    61
  | Maximal number of non-zero basis functions:     2095 in task    62
  | Maximal number of non-zero basis functions:     2121 in task    63
  | Maximal number of non-zero basis functions:     2188 in task    64
  | Maximal number of non-zero basis functions:     2148 in task    65
  | Maximal number of non-zero basis functions:     2093 in task    66
  | Maximal number of non-zero basis functions:     2080 in task    67
  | Maximal number of non-zero basis functions:     2116 in task    68
  | Maximal number of non-zero basis functions:     2107 in task    69
  | Maximal number of non-zero basis functions:     2096 in task    70
  | Maximal number of non-zero basis functions:     2148 in task    71
  | Maximal number of non-zero basis functions:     2047 in task    72
  | Maximal number of non-zero basis functions:     2107 in task    73
  | Maximal number of non-zero basis functions:     2172 in task    74
  | Maximal number of non-zero basis functions:     2078 in task    75
  | Maximal number of non-zero basis functions:     2108 in task    76
  | Maximal number of non-zero basis functions:     2118 in task    77
  | Maximal number of non-zero basis functions:     2089 in task    78
  | Maximal number of non-zero basis functions:     2165 in task    79
  Allocating       36.736 MB for KS_eigenvector_complex
  Integrating Hamiltonian matrix: batch-based integration.
  Time summed over all CPUs for integration: real work      131.546 s, elapsed      140.161 s
  Integrating overlap matrix.
  Time summed over all CPUs for integration: real work      103.912 s, elapsed      111.246 s
  Decreasing sparse matrix size:
   Tolerance:  9.999999824516700E-014
   Hamiltonian matrix
  | Array has  2232997 nonzero elements out of  2839833 elements
  | Sparsity factor is 0.214
   Overlap matrix
  | Array has  2056628 nonzero elements out of  2839833 elements
  | Sparsity factor is 0.276
  New size of hamiltonian matrix:     2242683

  Updating Kohn-Sham eigenvalues and eigenvectors using ELSI and the ELPA eigensolver.
  Overlap matrix is nonsingular
  | Lowest eigenvalue of overlap  :  0.38E-04
  | Highest eigenvalue of overlap :  0.11E+02
  Finished singularity check of overlap matrix
  | Time :     0.037 s
  Finished Cholesky decomposition
  | Time :     0.011 s
  Finished transformation to standard eigenproblem
  | Time :     0.027 s
  Starting LAPACK eigensolver
  Finished solving standard eigenproblem
  | Time :     0.043 s
  Finished back-transformation of eigenvectors
  | Time :     0.005 s

  Obtaining occupation numbers and chemical potential using ELSI.
  | Chemical potential (Fermi level):    -5.12384337eV
  Writing Kohn-Sham eigenvalues.
  K-point:       1 at    0.000000    0.000000    0.000000 (in units of recip. lattice)

  State    Occupation    Eigenvalue [Ha]    Eigenvalue [eV]
      1       2.00000        -745.361555       -20282.31988
      2       2.00000        -745.361555       -20282.31988
      3       2.00000        -466.361155       -12690.33270
      4       2.00000        -466.361155       -12690.33270
      5       2.00000        -466.361155       -12690.33270
      6       2.00000        -466.361155       -12690.33270
      7       2.00000        -103.305660        -2811.09005
      8       2.00000        -103.305660        -2811.09005
      9       2.00000         -92.326028        -2512.31904
     10       2.00000         -92.326028        -2512.31904
     11       2.00000         -92.326027        -2512.31902
     12       2.00000         -92.326027        -2512.31902
     13       2.00000         -92.326027        -2512.31902
     14       2.00000         -92.326027        -2512.31902
     15       2.00000         -59.226478        -1611.63446
     16       2.00000         -59.226478        -1611.63446
     17       2.00000         -59.226478        -1611.63446
     18       2.00000         -59.226478        -1611.63446
     19       2.00000         -52.084972        -1417.30419
     20       2.00000         -52.084972        -1417.30419
     21       2.00000         -52.084972        -1417.30419
     22       2.00000         -52.084971        -1417.30419
     23       2.00000         -52.084920        -1417.30277
     24       2.00000         -52.084920        -1417.30277
     25       2.00000         -52.084920        -1417.30277
     26       2.00000         -52.084920        -1417.30277
     27       2.00000         -52.084919        -1417.30276
     28       2.00000         -52.084919        -1417.30276
     29       2.00000         -52.084919        -1417.30276
     30       2.00000         -52.084919        -1417.30276
     31       2.00000         -17.535668         -477.16980
     32       2.00000         -17.535668         -477.16980
     33       2.00000         -13.955058         -379.73646
     34       2.00000         -13.955058         -379.73646
     35       2.00000         -13.955039         -379.73594
     36       2.00000         -13.955039         -379.73594
     37       2.00000         -13.955039         -379.73594
     38       2.00000         -13.955039         -379.73594
     39       2.00000          -8.138021         -221.44682
     40       2.00000          -8.138021         -221.44682
     41       2.00000          -8.138021         -221.44682
     42       2.00000          -8.138021         -221.44682
     43       2.00000          -8.137986         -221.44588
     44       2.00000          -8.137986         -221.44588
     45       2.00000          -8.137986         -221.44588
     46       2.00000          -8.137986         -221.44588
     47       2.00000          -8.137985         -221.44585
     48       2.00000          -8.137985         -221.44585
     49       2.00000          -7.873660         -214.25318
     50       2.00000          -7.873660         -214.25318
     51       2.00000          -7.873659         -214.25317
     52       2.00000          -7.873659         -214.25317
     53       2.00000          -5.648146         -153.69388
     54       2.00000          -5.648146         -153.69388
     55       2.00000          -5.648146         -153.69388
     56       2.00000          -5.648146         -153.69387
     57       2.00000          -5.647520         -153.67685
     58       2.00000          -5.647520         -153.67685
     59       2.00000          -5.647520         -153.67685
     60       2.00000          -5.647520         -153.67685
     61       2.00000          -5.647520         -153.67685
     62       2.00000          -5.647520         -153.67685
     63       2.00000          -5.647520         -153.67685
     64       2.00000          -5.647520         -153.67685
     65       2.00000          -2.392039          -65.09070
     66       2.00000          -2.392039          -65.09069
     67       2.00000          -1.980088          -53.88094
     68       2.00000          -1.980088          -53.88094
     69       2.00000          -1.980082          -53.88078
     70       2.00000          -1.980082          -53.88078
     71       2.00000          -1.980062          -53.88022
     72       2.00000          -1.980052          -53.87995
     73       2.00000          -1.980048          -53.87984
     74       2.00000          -1.980048          -53.87984
     75       2.00000          -1.980042          -53.87968
     76       2.00000          -1.980042          -53.87968
     77       2.00000          -1.979975          -53.87786
     78       2.00000          -1.979965          -53.87759
     79       2.00000          -1.979305          -53.85964
     80       2.00000          -1.979305          -53.85964
     81       2.00000          -1.979303          -53.85957
     82       2.00000          -1.979303          -53.85957
     83       2.00000          -1.979299          -53.85947
     84       2.00000          -1.979299          -53.85947
     85       2.00000          -1.979296          -53.85940
     86       2.00000          -1.979296          -53.85940
     87       2.00000          -1.451728          -39.50352
     88       2.00000          -1.451725          -39.50344
     89       2.00000          -1.442852          -39.26199
     90       2.00000          -1.442852          -39.26199
     91       2.00000          -1.442852          -39.26199
     92       2.00000          -1.442852          -39.26199
     93       2.00000          -0.769545          -20.94039
     94       2.00000          -0.760255          -20.68758
     95       2.00000          -0.731571          -19.90706
     96       2.00000          -0.717308          -19.51893
     97       2.00000          -0.453267          -12.33402
     98       2.00000          -0.410691          -11.17546
     99       2.00000          -0.341224           -9.28517
    100       2.00000          -0.296542           -8.06931
    101       2.00000          -0.296541           -8.06930
    102       2.00000          -0.295719           -8.04693
    103       2.00000          -0.295719           -8.04692
    104       2.00000          -0.259396           -7.05852
    105       2.00000          -0.259395           -7.05850
    106       2.00000          -0.257090           -6.99579
    107       2.00000          -0.257090           -6.99576
    108       2.00000          -0.249869           -6.79929
    109       2.00000          -0.230068           -6.26047
    110       1.99999          -0.189461           -5.15550
    111       0.00000          -0.110763           -3.01402
    112       0.00000          -0.110763           -3.01401
    113       0.00000          -0.109536           -2.98063
    114       0.00000          -0.109535           -2.98060
    115       0.00000          -0.105666           -2.87533
    116       0.00000          -0.105665           -2.87528
    117       0.00000          -0.098696           -2.68565
    118       0.00000          -0.098695           -2.68563
    119       0.00000          -0.023118           -0.62908
    120       0.00000          -0.010424           -0.28366
    121       0.00000           0.074963            2.03986
    122       0.00000           0.092628            2.52053
    123       0.00000           0.098040            2.66781
    124       0.00000           0.162366            4.41821
    125       0.00000           0.167910            4.56906
    126       0.00000           0.167911            4.56910
    127       0.00000           0.184803            5.02876
    128       0.00000           0.184804            5.02876
    129       0.00000           0.211314            5.75015
    130       0.00000           0.239517            6.51758
    131       0.00000           0.239517            6.51759
    132       0.00000           0.256771            6.98710
    133       0.00000           0.264643            7.20132
    134       0.00000           0.264645            7.20136
    135       0.00000           0.287269            7.81699
    136       0.00000           0.310127            8.43899
    137       0.00000           0.331912            9.03179
    138       0.00000           0.368379           10.02409
    139       0.00000           0.368382           10.02418
    140       0.00000           0.384063           10.45089
    141       0.00000           0.384069           10.45105
    142       0.00000           0.410964           11.18290
    143       0.00000           0.415445           11.30484

  What follows are estimated values for band gap, HOMO, LUMO, etc.
  | They are estimated on a discrete k-point grid and not necessarily exact.
  | For converged numbers, create a DOS and/or band structure plot on a denser k-grid.

  Highest occupied state (VBM) at     -5.15550461 eV (relative to internal zero)
  | Occupation number:      1.99999245
  | K-point:       1 at    0.000000    0.000000    0.000000 (in units of recip. lattice)

  Lowest unoccupied state (CBM) at    -4.39378922 eV (relative to internal zero)
  | Occupation number:      0.00000000
  | K-point:    1583 at    0.333333    0.833333    0.000000 (in units of recip. lattice)

  ESTIMATED overall HOMO-LUMO gap:      0.76171539 eV between HOMO at k-point 1 and LUMO at k-point 1583
  | This appears to be an indirect band gap.
  | Smallest direct gap :      1.58098658 eV for k_point 1461 at    0.333333    0.833333    0.000000 (in units of recip. lattice)
  The gap value is above 0.2 eV. Unless you are using a very sparse k-point grid,
  this system is most likely an insulator or a semiconductor.
  Calculating total energy contributions from superposition of free atom densities.

  Total energy components:
  | Sum of eigenvalues            :      -10677.15605956 Ha     -290540.19890320 eV
  | XC energy correction          :        -601.71911564 Ha      -16373.61021672 eV
  | XC potential correction       :         783.52443948 Ha       21320.78478792 eV
  | Free-atom electrostatic energy:       -7462.78549990 Ha     -203072.72567885 eV
  | Hartree energy correction     :           0.00000000 Ha           0.00000000 eV
  | Entropy correction            :          -0.00000000 Ha          -0.00000000 eV
  | ---------------------------
  | Total energy                  :      -17958.13623562 Ha     -488665.75001086 eV
  | Total energy, T -> 0          :      -17958.13623562 Ha     -488665.75001086 eV  <-- do not rely on this value for anything but (periodic) metals
  | Electronic free energy        :      -17958.13623562 Ha     -488665.75001086 eV

  Derived energy quantities:
  | Kinetic energy                :       18414.52006110 Ha      501084.58576547 eV
  | Electrostatic energy          :      -35770.93718108 Ha     -973376.72555960 eV
  | Energy correction for multipole
  | error in Hartree potential    :           0.00000000 Ha           0.00000000 eV
  | Sum of eigenvalues per atom                           :      -48423.36648387 eV
  | Total energy (T->0) per atom                          :      -81444.29166848 eV  <-- do not rely on this value for anything but (periodic) metals
  | Electronic free energy per atom                       :      -81444.29166848 eV
  Initialize hartree_potential_storage
  Max. number of atoms included in rho_multipole:            6

  End scf initialization - timings             :  max(cpu_time)    wall_clock(cpu1)
  | Time for scf. initialization               :       10.380 s          10.369 s
  | Boundary condition initialization          :        0.228 s           0.228 s
  | Relaxation initialization                  :        0.004 s           0.002 s
  | Integration                                :        3.284 s           3.281 s
  | Solution of K.-S. eqns.                    :        6.296 s           6.301 s
  | Grid partitioning                          :        0.264 s           0.258 s
  | Preloading free-atom quantities on grid    :        0.016 s           0.015 s
  | Free-atom superposition energy             :        0.020 s           0.019 s
  | Total energy evaluation                    :        0.012 s           0.012 s

  Partial memory accounting:
  | Current value for overall tracked memory usage on task 0  :          81.591 MB
  | Peak value for overall tracked memory usage on task 0     :         138.070 MB after allocating wave
  | Largest tracked array allocation on task 0 so far         :          38.826 MB  when allocating hamiltonian_shell
  Note:  These values currently only include a subset of arrays which are explicitly tracked.
  The "true" memory usage will be greater.
------------------------------------------------------------

------------------------------------------------------------
          Begin self-consistency iteration #    1

  Date     :  20191129, Time     :  105453.286
------------------------------------------------------------
  Evaluating new KS density using the density matrix
  Evaluating density matrix
  Time summed over all CPUs for getting density from density matrix: real work      269.076 s, elapsed      284.615 s
  Integration grid: deviation in total charge (<rho> - N_e) =  -1.539945E-09
  Pulay mixing of updated and previous charge densities.

  Evaluating partitioned Hartree potential by multipole expansion.
  | Analytical far-field extrapolation by fixed multipoles:
  | Hartree multipole sum: apparent total charge =  -0.168501E-03
  Summing up the Hartree potential.
  | Estimated reciprocal-space cutoff momentum G_max:         2.49671930 bohr^-1 .
  | Reciprocal lattice points for long-range Hartree potential:     228
  Time summed over all CPUs for potential: real work       14.825 s, elapsed       15.566 s
  | RMS charge density error from multipole expansion :   0.136093E-03
  | Average real-space part of the electrostatic potential :     -0.00276727 eV

  Integrating Hamiltonian matrix: batch-based integration.
  Time summed over all CPUs for integration: real work      126.361 s, elapsed      134.313 s

  Updating Kohn-Sham eigenvalues and eigenvectors using ELSI and the ELPA eigensolver.
  Finished Cholesky decomposition
  | Time :     0.011 s
  Finished transformation to standard eigenproblem
  | Time :     0.017 s
  Starting LAPACK eigensolver
  Finished solving standard eigenproblem
  | Time :     0.043 s
  Finished back-transformation of eigenvectors
  | Time :     0.004 s

  Obtaining occupation numbers and chemical potential using ELSI.
  | Chemical potential (Fermi level):    -5.15521338eV
  Writing Kohn-Sham eigenvalues.
  K-point:       1 at    0.000000    0.000000    0.000000 (in units of recip. lattice)

  State    Occupation    Eigenvalue [Ha]    Eigenvalue [eV]
      1       2.00000        -745.367693       -20282.48690
      2       2.00000        -745.367693       -20282.48690
      3       2.00000        -466.359631       -12690.29122
      4       2.00000        -466.359631       -12690.29122
      5       2.00000        -466.359631       -12690.29122
      6       2.00000        -466.359631       -12690.29122
      7       2.00000        -103.311774        -2811.25640
      8       2.00000        -103.311774        -2811.25640
      9       2.00000         -92.332181        -2512.48647
     10       2.00000         -92.332181        -2512.48647
     11       2.00000         -92.332178        -2512.48639
     12       2.00000         -92.332178        -2512.48639
     13       2.00000         -92.332178        -2512.48639
     14       2.00000         -92.332178        -2512.48639
     15       2.00000         -59.225165        -1611.59873
     16       2.00000         -59.225165        -1611.59873
     17       2.00000         -59.225165        -1611.59873
     18       2.00000         -59.225165        -1611.59873
     19       2.00000         -52.083625        -1417.26754
     20       2.00000         -52.083625        -1417.26753
     21       2.00000         -52.083625        -1417.26753
     22       2.00000         -52.083624        -1417.26753
     23       2.00000         -52.083583        -1417.26641
     24       2.00000         -52.083583        -1417.26641
     25       2.00000         -52.083583        -1417.26641
     26       2.00000         -52.083583        -1417.26641
     27       2.00000         -52.083583        -1417.26640
     28       2.00000         -52.083583        -1417.26640
     29       2.00000         -52.083583        -1417.26640
     30       2.00000         -52.083583        -1417.26640
     31       2.00000         -17.540825         -477.31013
     32       2.00000         -17.540825         -477.31013
     33       2.00000         -13.960223         -379.87700
     34       2.00000         -13.960223         -379.87700
     35       2.00000         -13.960193         -379.87618
     36       2.00000         -13.960193         -379.87618
     37       2.00000         -13.960193         -379.87618
     38       2.00000         -13.960193         -379.87618
     39       2.00000          -8.143264         -221.58949
     40       2.00000          -8.143264         -221.58949
     41       2.00000          -8.143264         -221.58949
     42       2.00000          -8.143264         -221.58949
     43       2.00000          -8.143220         -221.58828
     44       2.00000          -8.143220         -221.58828
     45       2.00000          -8.143217         -221.58820
     46       2.00000          -8.143217         -221.58820
     47       2.00000          -8.143217         -221.58820
     48       2.00000          -8.143217         -221.58820
     49       2.00000          -7.872532         -214.22250
     50       2.00000          -7.872532         -214.22250
     51       2.00000          -7.872532         -214.22250
     52       2.00000          -7.872532         -214.22250
     53       2.00000          -5.646989         -153.66240
     54       2.00000          -5.646989         -153.66240
     55       2.00000          -5.646989         -153.66239
     56       2.00000          -5.646989         -153.66239
     57       2.00000          -5.646411         -153.64666
     58       2.00000          -5.646411         -153.64666
     59       2.00000          -5.646411         -153.64666
     60       2.00000          -5.646411         -153.64666
     61       2.00000          -5.646411         -153.64666
     62       2.00000          -5.646411         -153.64666
     63       2.00000          -5.646411         -153.64666
     64       2.00000          -5.646411         -153.64666
     65       2.00000          -2.395513          -65.18522
     66       2.00000          -2.395513          -65.18522
     67       2.00000          -1.978965          -53.85037
     68       2.00000          -1.978965          -53.85037
     69       2.00000          -1.978959          -53.85021
     70       2.00000          -1.978959          -53.85021
     71       2.00000          -1.978924          -53.84927
     72       2.00000          -1.978924          -53.84926
     73       2.00000          -1.978924          -53.84926
     74       2.00000          -1.978918          -53.84910
     75       2.00000          -1.978918          -53.84910
     76       2.00000          -1.978914          -53.84900
     77       2.00000          -1.978838          -53.84691
     78       2.00000          -1.978828          -53.84664
     79       2.00000          -1.978214          -53.82993
     80       2.00000          -1.978214          -53.82993
     81       2.00000          -1.978211          -53.82986
     82       2.00000          -1.978211          -53.82986
     83       2.00000          -1.978207          -53.82976
     84       2.00000          -1.978207          -53.82976
     85       2.00000          -1.978205          -53.82969
     86       2.00000          -1.978205          -53.82969
     87       2.00000          -1.454777          -39.58649
     88       2.00000          -1.454774          -39.58641
     89       2.00000          -1.445979          -39.34710
     90       2.00000          -1.445979          -39.34710
     91       2.00000          -1.445979          -39.34710
     92       2.00000          -1.445979          -39.34710
     93       2.00000          -0.769023          -20.92617
     94       2.00000          -0.759712          -20.67282
     95       2.00000          -0.731065          -19.89328
     96       2.00000          -0.716764          -19.50414
     97       2.00000          -0.453209          -12.33245
     98       2.00000          -0.410760          -11.17734
     99       2.00000          -0.340874           -9.27566
    100       2.00000          -0.297159           -8.08612
    101       2.00000          -0.297159           -8.08610
    102       2.00000          -0.296354           -8.06420
    103       2.00000          -0.296353           -8.06418
    104       2.00000          -0.259903           -7.07233
    105       2.00000          -0.259902           -7.07230
    106       2.00000          -0.257633           -7.01056
    107       2.00000          -0.257632           -7.01053
    108       2.00000          -0.249425           -6.78719
    109       2.00000          -0.231211           -6.29156
[...]
  | Sum of eigenvalues per atom                           :      -48444.23712454 eV
  | Total energy (T->0) per atom                          :      -81444.44320878 eV  <-- do not rely on this value for anything but (periodic) metals
  | Electronic free energy per atom                       :      -81444.44320878 eV

  atomic forces [eV/Ang]:
  -----------------------
  atom #    1
   Hellmann-Feynman              :  0.255296E-02  0.151653E-02  0.161583E-01
   Ionic forces                  :  0.000000E+00  0.000000E+00  0.000000E+00
   Multipole                     : -0.893180E-04 -0.118713E-03 -0.171865E-03
   Pulay + GGA                   : -0.196182E-02 -0.107492E-02 -0.126475E-01
   Van der Waals                 :  0.192268E-03 -0.115805E-03  0.634812E-04
   ----------------------------------------------------------------
   Total forces(   1)            :  0.694093E-03  0.207093E-03  0.340239E-02
  atom #    2
   Hellmann-Feynman              : -0.242248E-02 -0.145138E-02  0.368841E-02
   Ionic forces                  :  0.000000E+00  0.000000E+00  0.000000E+00
   Multipole                     :  0.883746E-04  0.118246E-03 -0.253094E-04
   Pulay + GGA                   :  0.186270E-02  0.102629E-02 -0.275392E-02
   Van der Waals                 : -0.192289E-03  0.115788E-03 -0.591321E-05
   ----------------------------------------------------------------
   Total forces(   2)            : -0.663700E-03 -0.191049E-03  0.903267E-03
  atom #    3
   Hellmann-Feynman              : -0.625604E-03  0.440370E-03  0.243485E+02
   Ionic forces                  :  0.000000E+00  0.000000E+00  0.000000E+00
   Multipole                     :  0.580003E-05  0.684183E-05  0.537961E-01
   Pulay + GGA                   :  0.459493E-03 -0.716787E-04 -0.244952E+02
   Van der Waals                 :  0.900827E-04 -0.543433E-04  0.925504E-01
   ----------------------------------------------------------------
   Total forces(   3)            : -0.702285E-04  0.321189E-03 -0.330289E-03
  atom #    4
   Hellmann-Feynman              :  0.657519E-03 -0.438690E-03  0.243468E+02
   Ionic forces                  :  0.000000E+00  0.000000E+00  0.000000E+00
   Multipole                     : -0.584827E-05 -0.675790E-05  0.537769E-01
   Pulay + GGA                   : -0.536671E-03  0.683765E-04 -0.244947E+02
   Van der Waals                 : -0.900002E-04  0.543211E-04  0.925507E-01
   ----------------------------------------------------------------
   Total forces(   4)            :  0.249994E-04 -0.322750E-03 -0.163417E-02
  atom #    5
   Hellmann-Feynman              :  0.644911E-03 -0.440264E-03 -0.243494E+02
   Ionic forces                  :  0.000000E+00  0.000000E+00  0.000000E+00
   Multipole                     : -0.582562E-05 -0.684439E-05 -0.538199E-01
   Pulay + GGA                   : -0.505455E-03  0.714336E-04  0.244939E+02
   Van der Waals                 : -0.900995E-04  0.543669E-04 -0.925794E-01
   ----------------------------------------------------------------
   Total forces(   5)            :  0.435310E-04 -0.321308E-03 -0.189882E-02
  atom #    6
   Hellmann-Feynman              : -0.652487E-03  0.450571E-03 -0.243475E+02
   Ionic forces                  :  0.000000E+00  0.000000E+00  0.000000E+00
   Multipole                     :  0.586820E-05  0.675761E-05 -0.537999E-01
   Pulay + GGA                   :  0.527072E-03 -0.952930E-04  0.244934E+02
   Van der Waals                 :  0.900382E-04 -0.543275E-04 -0.925793E-01
   ----------------------------------------------------------------
   Total forces(   6)            : -0.295081E-04  0.307708E-03 -0.433887E-03


  Analytical stress tensor components [eV]         xx                  yy                  zz                  xy                  xz                  yz
  -----------------------------------------------------------------------------------------------------------------------------------------------------------
    Nuclear Hellmann-Feynman      :    -0.8947774090E+02   -0.8946383542E+02   -0.1334145414E+03   -0.2270822767E-02    0.2143099635E-03   -0.4743952220E-04
    Multipole Hellmann-Feynman    :    -0.2334872665E+03   -0.2334735533E+03   -0.2880094864E+03   -0.1472547418E-02    0.3538226371E-03   -0.7417115986E-04
    On-site Multipole corrections :    -0.2072408112E+01   -0.2072989940E+01   -0.2072553436E+01   -0.9247627496E-07   -0.5413758444E-09   -0.5706410758E-07
    Strain deriv. of the orbitals :     0.3227388260E+03    0.3227134096E+03    0.4218791594E+03    0.4578996162E-02   -0.4708649977E-03    0.1011967121E-03
    vdW correction   :     0.2294849157E+01    0.2300158116E+01    0.1640695735E+01    0.4539566881E-02   -0.2464942606E-06    0.6851927274E-07
  -----------------------------------------------------------------------------------------------------------------------------------------------------------
  Sum of all contributions        :    -0.3740417245E-02    0.3188986083E-02    0.2327394844E-01    0.5375100382E-02    0.9702056721E-04   -0.2040251478E-04

  +-------------------------------------------------------------------+
  |              Analytical stress tensor - Symmetrized               |
  |                  Cartesian components [eV/A**3]                   |
  +-------------------------------------------------------------------+
  |                x                y                z                |
  |                                                                   |
  |  x        -0.00003109       0.00004467       0.00000081           |
  |  y         0.00004467       0.00002651      -0.00000017           |
  |  z         0.00000081      -0.00000017       0.00019344           |
  |                                                                   |
  |  Pressure:      -0.00006295   [eV/A**3]                           |
  |                                                                   |
  +-------------------------------------------------------------------+

 * Warning: Stress tensor is anisotropic. Be aware that pressure is an isotropic quantity.

  Timings for VdW correction (Tkatchenko-Scheffler 2009 or later):
  | CPU time:       11.280 s, Wall clock time:       11.271 s.
  Removing unitary transformations (pure translations, rotations) from forces on atoms.
  Atomic forces before filtering:
  | Net force on center of mass :  -0.812752E-06  0.882937E-06  0.849620E-05 eV/A
  Removing unitary transformations (rotations) from forces on lattice.
  Lattice forces before filtering:
  | Net torque relative to origin:  -0.830363E-20 -0.752354E-20  0.148127E-39 eV
  Atomic forces after filtering:
  | Net force on center of mass :  -0.272226E-19 -0.435562E-19  0.522674E-18 eV/A
  Lattice forces after filtering:
  | Net torque relative to origin:  -0.830363E-20 -0.752354E-20  0.148127E-39 eV

  Energy and forces in a compact form:
  | Total energy uncorrected      :         -0.488666659252690E+06 eV
  | Total energy corrected        :         -0.488666659252690E+06 eV  <-- do not rely on this value for anything but (periodic) metals
  | Electronic free energy        :         -0.488666659252690E+06 eV
  Total atomic forces (unitary forces cleaned) [eV/Ang]:
  |   1          0.694228460901294E-03          0.206945564949660E-03          0.340097890715411E-02
  |   2         -0.663564154390298E-03         -0.191196064289344E-03          0.901851193668646E-03
  |   3         -0.700929949953186E-04          0.321042339751797E-03         -0.331704894283654E-03
  |   4          0.251348738444474E-04         -0.322897553147562E-03         -0.163558133369620E-02
  |   5          0.436664942434919E-04         -0.321455549450783E-03         -0.190024041041407E-02
  |   6         -0.293726796036173E-04          0.307561262186233E-03         -0.435303462428831E-03

  ------------------------------------ 
  Start decomposition of the XC Energy 
  ------------------------------------ 
  X and C from original XC functional choice 
  Hartree-Fock Energy :          0.000000000 Ha              0.000000000 eV
  X Energy            :       -590.363051698 Ha         -16064.595994347 eV
  C Energy            :        -11.138280218 Ha           -303.088025671 eV
  Total XC Energy     :       -601.501331916 Ha         -16367.684020019 eV
  ------------------------------------ 
  LDA X and C from self-consistent density 
  X Energy LDA        :       -560.163324112 Ha         -15242.819595197 eV
  C Energy LDA        :        -20.143288361 Ha           -548.126764676 eV
  ------------------------------------ 
  End decomposition of the XC Energy 
  ------------------------------------ 

------------------------------------------------------------
  Relaxation / MD: End force evaluation.       :  max(cpu_time)    wall_clock(cpu1)
  | Time for this force evaluation             :      274.960 s         275.360 s

------------------------------------------------------------
  Geometry optimization: Attempting to predict improved coordinates.

  +-------------------------------------------------------------------+
  | Generalized derivatives on lattice vectors [eV/A]                 |
  +-------------------------------------------------------------------+
  |lattice_vector      -0.00019420       0.00219969       0.00002598  |
  |lattice_vector       0.00189196       0.00112248      -0.00000718  |
  |lattice_vector       0.00000752      -0.00000158       0.00180290  |
  +-------------------------------------------------------------------+
  | Forces on lattice vectors cleaned from atomic contributions [eV/A]|
  +-------------------------------------------------------------------+
  |lattice_vector      -0.00020197      -0.00275691      -0.00178200  |
  |lattice_vector      -0.00149578      -0.00056525       0.00176325  |
  |lattice_vector      -0.00038132       0.00021872      -0.00178339  |
  +-------------------------------------------------------------------+
  | Projected forces for shape relaxation  [eV/A]                     |
  +-------------------------------------------------------------------+
  |lattice_vector      -0.00020197       0.00000000      -0.00000000  |
  |lattice_vector      -0.00012919       0.00022376      -0.00000000  |
  |lattice_vector       0.00000000       0.00000000      -0.00178339  |
  +-------------------------------------------------------------------+
  Removing unitary transformations (pure translations, rotations) from forces on atoms.
  Atomic forces before filtering:
  | Net force on center of mass :  -0.272226E-19 -0.435562E-19  0.522674E-18 eV/A
  Removing unitary transformations (rotations) from forces on lattice.
  Lattice forces before filtering:
  | Net torque relative to origin:   0.000000E+00  0.000000E+00  0.460979E-19 eV
  Atomic forces after filtering:
  | Net force on center of mass :  -0.272226E-19 -0.435562E-19  0.522674E-18 eV/A
  Lattice forces after filtering:
  | Net torque relative to origin:   0.000000E+00  0.000000E+00  0.460979E-19 eV
  || Forces on lattice vectors || =   0.178339E-02 eV/A.
  Net remaining forces (excluding translations, rotations) in present geometry:
  Maximum force component is  0.340098E-02 eV/A.
  Present geometry is converged.

------------------------------------------------------------
  Final atomic structure:
                         x [A]             y [A]             z [A]
  lattice_vector         3.28058121       -0.00000000        0.00000000
  lattice_vector        -1.64026628        2.84102454       -0.00000000
  lattice_vector        -0.00000000       -0.00000000       12.90915291

            atom        -0.00106607        1.89462464        3.22727768  Mo
            atom         1.64137979        0.94639929        9.68176536  Mo
            atom         0.00108827        1.89337996       11.36276970  Se
            atom         1.63923110        0.94764409        4.90837496  Se
            atom         1.63922873        0.94764391        1.54644584  Se
            atom         0.00108299        1.89338172        8.00082518  Se

  Fractional coordinates:
                         L1                L2                L3
       atom_frac         0.33311048        0.66688077        0.24999918  Mo
       atom_frac         0.66688905        0.33311901        0.74999231  Mo
       atom_frac         0.33354812        0.66644266        0.88021033  Se
       atom_frac         0.66645315        0.33355717        0.38022440  Se
       atom_frac         0.66645239        0.33355710        0.11979453  Se
       atom_frac         0.33354682        0.66644328        0.61977926  Se
------------------------------------------------------------

------------------------------------------------------------------------------
  Final output of selected total energy values:

  The following output summarizes some interesting total energy values
  at the end of a run (AFTER all relaxation, molecular dynamics, etc.).

  | Total energy of the DFT / Hartree-Fock s.c.f. calculation      :        -488666.659252690 eV
  | Final zero-broadening corrected energy (caution - metals only) :        -488666.659252690 eV
  | For reference only, the value of 1 Hartree used in FHI-aims is :             27.211384500 eV

  Before relying on these values, please be sure to understand exactly which
  total energy value is referred to by a given number. Different objects may
  all carry the same name 'total energy'. Definitions:

  Total energy of the DFT / Hartree-Fock s.c.f. calculation:
  | Note that this energy does not include ANY quantities calculated after the
  | s.c.f. cycle, in particular not ANY RPA, MP2, etc. many-body perturbation terms.

  Final zero-broadening corrected energy:
  | For metallic systems only, a broadening of the occupation numbers at the Fermi
  | level can be extrapolated back to zero broadening by an electron-gas inspired
  | formula. For all systems that are not real metals, this value can be
  | meaningless and should be avoided.

------------------------------------------------------------------------------
  Methods described in the following list of references were used in this FHI-aims run.
  If you publish the results, please make sure to cite these reference if they apply.
  FHI-aims is an academic code, and for our developers (often, Ph.D. students
  and postdocs), scientific credit in the community is essential.
  Thank you for helping us!

  For any use of FHI-aims, please cite:

    Volker Blum, Ralf Gehrke, Felix Hanke, Paula Havu, Ville Havu,
    Xinguo Ren, Karsten Reuter, and Matthias Scheffler
    'Ab initio molecular simulations with numeric atom-centered orbitals'
    Computer Physics Communications 180, 2175-2196 (2009)
    http://dx.doi.org/10.1016/j.cpc.2009.06.022


  For the analytical stress tensor used in your run, please cite:

    Franz Knuth, Christian Carbogno, Viktor Atalla, Volker Blum, Matthias Scheffler
    'All-electron formalism for total energy strain derivatives and
    stress tensor components for numeric atom-centered orbitals'
    Computer Physics Communications 190, 33-50 (2015).
    http://dx.doi.org/10.1016/j.cpc.2015.01.003


  The scalable eigensolver library ELPA was used in your run.
  ELPA is essential especially for large systems on hundreds or thousands of CPUs.
  For ELPA, please cite:

    Andreas Marek, Volker Blum, Rainer Johanni, Ville Havu, Bruno Lang,
    Thomas Auckenthaler, Alexander Heinecke, Hans-Joachim Bungartz, and Hermann Lederer,
    'The ELPA Library - Scalable Parallel Eigenvalue Solutions
    for Electronic Structure Theory and Computational Science'
    The Journal of Physics: Condensed Matter 26, 213201 (2014).
    http://dx.doi.org/10.1088/0953-8984/26/21/213201


  The ELSI infrastructure was used in your run to solve the Kohn-Sham electronic structure.
  Please check out http://elsi-interchange.org to learn more.
  If scalability is important for your project, please acknowledge ELSI by citing:

    V. W-z. Yu, F. Corsetti, A. Garcia, W. P. Huhn, M. Jacquelin, W. Jia,
    B. Lange, L. Lin, J. Lu, W. Mi, A. Seifitokaldani, A. Vazquez-Mayagoitia,
    C. Yang, H. Yang, and V. Blum
    'ELSI: A unified software interface for Kohn-Sham electronic structure solvers'
    Computer Physics Communications 222, 267-285 (2018).
    http://dx.doi.org/10.1016/j.cpc.2017.09.007


  For the real-space grid partitioning and parallelization used in this calculation, please cite:

    Ville Havu, Volker Blum, Paula Havu, and Matthias Scheffler,
    'Efficient O(N) integration for all-electron electronic structure calculation'
    'using numerically tabulated basis functions'
    Journal of Computational Physics 228, 8367-8379 (2009).
    http://dx.doi.org/10.1016/j.jcp.2009.08.008

  Of course, there are many other important community references, e.g., those cited in the
  above references. Our list is limited to references that describe implementations in the
  FHI-aims code. The reason is purely practical (length of this list) - please credit others as well.

   One or more s.c.f. cycles took more than 50 s.c.f. iterations.
   It might be worth adjusting your convergence settings. For example,
   metals need a larger broadening and a smaller "charge_mix_param" value than semiconductors.

------------------------------------------------------------
          Leaving FHI-aims.
          Date     :  20191129, Time     :  113947.770

          Computational steps:
          | Number of self-consistency cycles          :          163
          | Number of SCF (re)initializations          :            7
          | Number of relaxation steps                 :            6

          Detailed time accounting                     :  max(cpu_time)    wall_clock(cpu1)
          | Total time                                 :     2707.324 s        2705.421 s
          | Preparation time                           :        0.492 s           0.489 s
          | Boundary condition initalization           :        1.296 s           1.246 s
          | Grid partitioning                          :        1.792 s           1.776 s
          | Preloading free-atom quantities on grid    :        1.016 s           1.007 s
          | Free-atom superposition energy             :        0.160 s           0.148 s
          | Total time for integrations                :      300.884 s         300.313 s
          | Total time for solution of K.-S. equations :      912.748 s         912.668 s
          | Total time for EV reorthonormalization     :        6.572 s           5.713 s
          | Total time for density & force components  :     1330.888 s        1329.344 s
          | Total time for mixing & preconditioning    :       16.160 s          16.003 s
          | Total time for Hartree multipole update    :        0.680 s           0.401 s
          | Total time for Hartree multipole sum       :       53.224 s          52.850 s
          | Total time for total energy evaluation     :        2.020 s           1.997 s
          | Total time for scaled ZORA corrections     :        0.000 s           0.000 s
          | Total time for vdW correction              :       78.944 s          78.889 s

          Partial memory accounting:
          | Residual value for overall tracked memory usage across tasks :           0.000 MB (should be 0.000 MB)
          | Peak values for overall tracked memory usage (after allocating wave_pulay):
          |   Minimum:      194.170 MB (on task 50)
          |   Maximum:      200.537 MB (on task 66)
          |   Average:      197.519 MB
          | Largest tracked array allocation (hamiltonian_shell):
          |   Minimum:       36.736 MB (on task 48)
          |   Maximum:       40.356 MB (on task 66)
          |   Average:       37.997 MB
          Note:  These values currently only include a subset of arrays which are explicitly tracked.
          The "true" memory usage will be greater.

          Have a nice day.
------------------------------------------------------------
