  MPI-parallelism will be employed.
------------------------------------------------------------
          Invoking FHI-aims ...
          Version 171221_1
          Compiled on 2018/11/06 at 11:18:49 on host headnode.

          When using FHI-aims, please cite the following reference:

          Volker Blum, Ralf Gehrke, Felix Hanke, Paula Havu,
          Ville Havu, Xinguo Ren, Karsten Reuter, and Matthias Scheffler,
          'Ab Initio Molecular Simulations with Numeric Atom-Centered Orbitals',
          Computer Physics Communications 180, 2175-2196 (2009)

          For any questions about FHI-aims, please visit the aimsclub website
          with its forums and wiki. Contributions to both the forums and the
          wiki are warmly encouraged - they are for you, and everyone is welcome there.

------------------------------------------------------------



  Date     :  20191127, Time     :  205413.123
  Time zero on CPU 1             :   0.316000000000000E+00  s.
  Internal wall clock time zero  :           344120053.123  s.

  FHI-aims created a unique identifier for this run for later identification
  aims_uuid : 53C6D234-4F2B-45DE-AB42-4C8AB38B860F

  Using       80 parallel tasks.
  Task        0 on host t017 reporting.
  Task        1 on host t017 reporting.
  Task        2 on host t017 reporting.
  Task        3 on host t017 reporting.
  Task        4 on host t017 reporting.
  Task        5 on host t017 reporting.
  Task        6 on host t017 reporting.
  Task        7 on host t017 reporting.
  Task        8 on host t017 reporting.
  Task        9 on host t017 reporting.
  Task       10 on host t017 reporting.
  Task       11 on host t017 reporting.
  Task       12 on host t017 reporting.
  Task       13 on host t017 reporting.
  Task       14 on host t017 reporting.
  Task       15 on host t017 reporting.
  Task       16 on host t017 reporting.
  Task       17 on host t017 reporting.
  Task       18 on host t017 reporting.
  Task       19 on host t017 reporting.
  Task       20 on host t011 reporting.
  Task       21 on host t011 reporting.
  Task       22 on host t011 reporting.
  Task       23 on host t011 reporting.
  Task       24 on host t011 reporting.
  Task       25 on host t011 reporting.
  Task       26 on host t011 reporting.
  Task       27 on host t011 reporting.
  Task       28 on host t011 reporting.
  Task       29 on host t011 reporting.
  Task       30 on host t011 reporting.
  Task       31 on host t011 reporting.
  Task       32 on host t011 reporting.
  Task       33 on host t011 reporting.
  Task       34 on host t011 reporting.
  Task       35 on host t011 reporting.
  Task       36 on host t011 reporting.
  Task       37 on host t011 reporting.
  Task       38 on host t011 reporting.
  Task       39 on host t011 reporting.
  Task       40 on host t010 reporting.
  Task       41 on host t010 reporting.
  Task       42 on host t010 reporting.
  Task       43 on host t010 reporting.
  Task       44 on host t010 reporting.
  Task       45 on host t010 reporting.
  Task       46 on host t010 reporting.
  Task       47 on host t010 reporting.
  Task       48 on host t010 reporting.
  Task       49 on host t010 reporting.
  Task       50 on host t010 reporting.
  Task       51 on host t010 reporting.
  Task       52 on host t010 reporting.
  Task       53 on host t010 reporting.
  Task       54 on host t010 reporting.
  Task       55 on host t010 reporting.
  Task       56 on host t010 reporting.
  Task       57 on host t010 reporting.
  Task       58 on host t010 reporting.
  Task       59 on host t010 reporting.
  Task       60 on host t009 reporting.
  Task       61 on host t009 reporting.
  Task       62 on host t009 reporting.
  Task       63 on host t009 reporting.
  Task       64 on host t009 reporting.
  Task       65 on host t009 reporting.
  Task       66 on host t009 reporting.
  Task       67 on host t009 reporting.
  Task       68 on host t009 reporting.
  Task       69 on host t009 reporting.
  Task       70 on host t009 reporting.
  Task       71 on host t009 reporting.
  Task       72 on host t009 reporting.
  Task       73 on host t009 reporting.
  Task       74 on host t009 reporting.
  Task       75 on host t009 reporting.
  Task       76 on host t009 reporting.
  Task       77 on host t009 reporting.
  Task       78 on host t009 reporting.
  Task       79 on host t009 reporting.

  Performing system and environment tests:
  | Environment variable OMP_NUM_THREADS correctly set to 1.
  | Stacksize not measured: no C compiler
  | Checking for scalapack...
  | Testing pdtran()...
  | All pdtran() tests passed.

  Obtaining array dimensions for all initial allocations:
  
  -----------------------------------------------------------------------
  Parsing control.in (first pass over file, find array dimensions only).
  The contents of control.in will be repeated verbatim below
  unless switched off by setting 'verbatim_writeout .false.' .
  in the first line of control.in .
  -----------------------------------------------------------------------
  
  #===============================================================================
  # FHI-aims file: ./control.in
  # Created using the Atomic Simulation Environment (ASE)
  # Wed Nov 27 20:14:30 2019
  #
  # List of parameters used to initialize the calculator:
  #     k_grid : [18, 18, 18]
  #     species_dir : /chemsoft/FHI-aims/stable/species_defaults/tight
  #     relativistic : ('atomic_zora', 'scalar')
  #     adjust_scf : once 2
  #     spin : none
  #     xc : pbe
  #===============================================================================
  k_grid                             18 18 18
  relativistic                       atomic_zora scalar
  adjust_scf                         once 2
  ### geometry optimisation section
  relax_geometry    bfgs    1E-2
  relax_unit_cell       fixed_angles
  spin                               none
  xc                                 pbe
  many_body_dispersion
  #===============================================================================
  
  ################################################################################
  #
  #  FHI-aims code project
  # Volker Blum, Fritz Haber Institute Berlin, 2009
  #
  #  Suggested "tight" defaults for Hf atom (to be pasted into control.in file)
  #
  ################################################################################
    species          Hf
  #     global species definitions
      nucleus        72
      mass           178.49
  #
      l_hartree      6
  #
      cut_pot        4.0  2.0  1.0
      basis_dep_cutoff    1e-4
  #
      radial_base    71  7.0
      radial_multiplier  2
      angular_grids specified
        division   0.3723   50
        division   0.7995  110
        division   1.2133  194
        division   1.4586  302
        division   1.6594  434
  #      division   1.9508  590
  #      division   2.1708  770
  #      division   2.4268  974
  #      division   3.3577 1202
  #      outer_grid  974
        outer_grid  434
  ################################################################################
  #
  #  Definition of "minimal" basis
  #
  ################################################################################
  #     valence basis states
      valence      6  s   2.
      valence      5  p   6.
      valence      5  d   2.
      valence      4  f  14.
  #     ion occupancy
      ion_occ      6  s   1.
      ion_occ      5  p   6.
      ion_occ      5  d   1.
      ion_occ      4  f  14.
  ################################################################################
  #
  #  Suggested additional basis functions. For production calculations,
  #  uncomment them one after another (the most important basis functions are
  #  listed first).
  #
  #  Constructed for dimers: 1.975, 2.49, 3.25, 4.50 AA
  #
  ################################################################################
  #
  #  "First tier" - improvements: -322.32 meV to -24.16 meV
       hydro 4 f 6
       hydro 3 d 6
       ionic 6 p auto
       hydro 5 g 10.8
       hydro 4 s 4.7
  #  "Second tier" - improvements: -29.31 meV to -1.14 meV
       hydro 5 f 9.6
       ionic 5 d auto
       hydro 6 h 15.2
       hydro 3 p 2.3
       hydro 4 d 6.6
       hydro 3 s 2.1
  #  "Third tier" - max. impr. -1.11 meV, min. impr. - meV
  #     hydro 5 f 6.6
  #     hydro 5 g 11.2
  #     hydro 6 h 17.6
  #     hydro 3 p 3
  #     hydro 5 g 38.8
  #     hydro 4 d 4.9
  #     hydro 1 s 0.5
  #  "Fourth tier" - max. impr. -0.31 meV, min. impr. -0.11 meV
  #     hydro 5 p 12
  #     hydro 5 f 14
  #     hydro 5 f 20.8
  #     hydro 4 s 12.4
  #     hydro 5 d 19.2
  #     hydro 6 h 22
  #  Further functions: -0.14 meV and below.
  #     hydro 5 p 8.6
  #     hydro 4 s 6
  #     hydro 6 d 9.8
  #     hydro 5 f 19.6
  ################################################################################
  #
  #  FHI-aims code project
  # Volker Blum, Fritz Haber Institute Berlin, 2009
  #
  #  Suggested "tight" defaults for Se atom (to be pasted into control.in file)
  #
  ################################################################################
    species        Se
  #     global species definitions
      nucleus             34
      mass                78.96
  #
      l_hartree           6
  #
      cut_pot             4.0          2.0  1.0
      basis_dep_cutoff    1e-4
  #
      radial_base         55 7.0
      radial_multiplier   2
      angular_grids       specified
        division   0.0830  110
        division   0.1357  194
        division   0.7377  302
        division   0.8610  434
  #      division   0.9640  590
  #      division   1.0773  770
  #      division   2.5539  974
  #      outer_grid  974
        outer_grid  434
  ################################################################################
  #
  #  Definition of "minimal" basis
  #
  ################################################################################
  #     valence basis states
      valence      4  s   2.
      valence      4  p   4.
      valence      3  d  10.
  #     ion occupancy
      ion_occ      4  s   1.
      ion_occ      4  p   3.
      ion_occ      3  d  10.
  ################################################################################
  #
  #  Suggested additional basis functions. For production calculations,
  #  uncomment them one after another (the most important basis functions are
  #  listed first).
  #
  #  Constructed for dimers: 1.85 A, 2.15 A, 2.50 A, 3.00 A, 4.00 A
  #
  ################################################################################
  #  "First tier" - improvements: -336.21 meV to -36.85 meV
       hydro 3 d 4.3
       hydro 2 p 1.6
       hydro 4 f 7.2
       ionic 4 s auto
  #  "Second tier" - improvements: -14.39 meV to -1.49 meV
       hydro 5 g 10.4
       hydro 4 p 4.5
       hydro 4 d 6.2
       hydro 4 f 11.2
       hydro 1 s 0.65
       hydro 6 h 15.2
  #  "Third tier" - improvements: -0.46 meV and below
  #     hydro 5 g 14.4
  #     ionic 4 d auto
  #     hydro 4 f 22.4
  #     hydro 5 f 7.4
  #     hydro 5 p 8
  #     hydro 5 s 9.4
  #  "Fourth tier" - improvements: -0.12 meV and below
  #     hydro 5 d 11.6
  #     hydro 6 h 18
  #     hydro 4 p 4
  #     hydro 5 f 16
  #     hydro 4 s 3.9
  #
  #
  
  -----------------------------------------------------------------------
  Completed first pass over input file control.in .
  -----------------------------------------------------------------------
  
  
  -----------------------------------------------------------------------
  Parsing geometry.in (first pass over file, find array dimensions only).
  The contents of geometry.in will be repeated verbatim below
  unless switched off by setting 'verbatim_writeout .false.' .
  in the first line of geometry.in .
  -----------------------------------------------------------------------
  
  #=======================================================
  # FHI-aims file: ./geometry.in
  # Created using the Atomic Simulation Environment (ASE)
  # Wed Nov 27 20:14:30 2019
  #=======================================================
  lattice_vector 3.7735422000000001 0.0000000000000000 0.0000000000000000
  lattice_vector -1.8867711000000000 3.2679834099999998 0.0000000000000000
  lattice_vector 0.0000000000000000 0.0000000000000000 6.9285186000000003
  atom 0.0000000000000000 0.0000000000000000 0.0000000000000000 Hf
  atom 1.8867711000000000 1.0893278000000000 5.3533614700000003 Se
  atom 0.0000000000000000 2.1786555999999999 1.5751571300000000 Se
  
  -----------------------------------------------------------------------
  Completed first pass over input file geometry.in .
  -----------------------------------------------------------------------
  

  Basic array size parameters:
  | Number of species                 :        2
  | Number of atoms                   :        3
  | Number of lattice vectors         :        3
  | Max. basis fn. angular momentum   :        5
  | Max. atomic/ionic basis occupied n:        6
  | Max. number of basis fn. types    :        3
  | Max. radial fns per species/type  :       14
  | Max. logarithmic grid size        :     1480
  | Max. radial integration grid size :      143
  | Max. angular integration grid size:      434
  | Max. angular grid division number :        8
  | Radial grid for Hartree potential :     1480
  | Number of spin channels           :        1

------------------------------------------------------------
          Reading file control.in.
------------------------------------------------------------
  Found k-point grid:        18        18        18
  Scalar relativistic treatment of kinetic energy: on-site free-atom approximation to ZORA.
  S.C.F. convergence parameters will be adjusted in iteration number     2 of the first full s.c.f. cycle only.
  Geometry relaxation: Modified BFGS - TRM (trust radius method, i.e., trusted quadratic extrapolation).
  Convergence accuracy for geometry relaxation: Maximum force <   0.100000E-01 eV/A.
  Spin treatment: No spin polarisation.
  XC: Using PBE gradient-corrected functionals.
  Using the default MBD implementation with analytical forces
 
  Reading configuration options for species Hf                  .
  | Found nuclear charge :  72.0000
  | Found atomic mass :    178.490000000000      amu
  | Found l_max for Hartree potential  :   6
  | Found cutoff potl. onset [A], width [A], scale factor :    4.00000    2.00000    1.00000
  | Threshold for basis-dependent cutoff potential is   0.100000E-03
  | Found data for basic radial integration grid :    71 points, outermost radius =    7.000 A
  | Found multiplier for basic radial grid :   2
  | Found angular grid specification: user-specified.
  | Specified grid contains     6 separate shells.
  | Check grid settings after all constraints further below.
  | Found free-atom valence shell :  6 s   2.000
  | Found free-atom valence shell :  5 p   6.000
  | Found free-atom valence shell :  5 d   2.000
  | Found free-atom valence shell :  4 f  14.000
  | Found free-ion valence shell :  6 s   1.000
  | Found free-ion valence shell :  5 p   6.000
  | Found free-ion valence shell :  5 d   1.000
  | Found free-ion valence shell :  4 f  14.000
  | Found hydrogenic basis function :  4 f   6.000
  | Found hydrogenic basis function :  3 d   6.000
  | Found ionic basis function :  6 p , default cutoff radius.
  | Found hydrogenic basis function :  5 g  10.800
  | Found hydrogenic basis function :  4 s   4.700
  | Found hydrogenic basis function :  5 f   9.600
  | Found ionic basis function :  5 d , default cutoff radius.
  | Found hydrogenic basis function :  6 h  15.200
  | Found hydrogenic basis function :  3 p   2.300
  | Found hydrogenic basis function :  4 d   6.600
  | Found hydrogenic basis function :  3 s   2.100
  Species Hf                  : Missing cutoff potential type.
  Defaulting to exp(1/x)/(1-x)^2 type cutoff potential.
  Species Hf: No 'logarithmic' tag. Using default grid for free atom:
  | Default logarithmic grid data [bohr] : 0.1000E-03 0.1000E+03 0.1012E+01
  | Will include ionic basis functions of  2.0-fold positive Hf                   ion.
  Species Hf: On-site basis accuracy parameter (for Gram-Schmidt orthonormalisation) not specified.
  Using default value basis_acc =  0.1000000E-03.
  Species Hf                  : Using default innermost maximum threshold i_radial=  2 for radial functions.
  Species Hf                  : Default cutoff onset for free atom density etc. : 0.40000000E+01 AA.
  Species Hf                  : Basic radial grid will be enhanced according to radial_multiplier =   2, to contain   143 grid points.
 
  Reading configuration options for species Se                  .
  | Found nuclear charge :  34.0000
  | Found atomic mass :    78.9600000000000      amu
  | Found l_max for Hartree potential  :   6
  | Found cutoff potl. onset [A], width [A], scale factor :    4.00000    2.00000    1.00000
  | Threshold for basis-dependent cutoff potential is   0.100000E-03
  | Found data for basic radial integration grid :    55 points, outermost radius =    7.000 A
  | Found multiplier for basic radial grid :   2
  | Found angular grid specification: user-specified.
  | Specified grid contains     5 separate shells.
  | Check grid settings after all constraints further below.
  | Found free-atom valence shell :  4 s   2.000
  | Found free-atom valence shell :  4 p   4.000
  | Found free-atom valence shell :  3 d  10.000
  | Found free-ion valence shell :  4 s   1.000
  | Found free-ion valence shell :  4 p   3.000
  | Found free-ion valence shell :  3 d  10.000
  | Found hydrogenic basis function :  3 d   4.300
  | Found hydrogenic basis function :  2 p   1.600
  | Found hydrogenic basis function :  4 f   7.200
  | Found ionic basis function :  4 s , default cutoff radius.
  | Found hydrogenic basis function :  5 g  10.400
  | Found hydrogenic basis function :  4 p   4.500
  | Found hydrogenic basis function :  4 d   6.200
  | Found hydrogenic basis function :  4 f  11.200
  | Found hydrogenic basis function :  1 s   0.650
  | Found hydrogenic basis function :  6 h  15.200
  Species Se                  : Missing cutoff potential type.
  Defaulting to exp(1/x)/(1-x)^2 type cutoff potential.
  Species Se: No 'logarithmic' tag. Using default grid for free atom:
  | Default logarithmic grid data [bohr] : 0.1000E-03 0.1000E+03 0.1012E+01
  | Will include ionic basis functions of  2.0-fold positive Se                   ion.
  Species Se: On-site basis accuracy parameter (for Gram-Schmidt orthonormalisation) not specified.
  Using default value basis_acc =  0.1000000E-03.
  Species Se                  : Using default innermost maximum threshold i_radial=  2 for radial functions.
  Species Se                  : Default cutoff onset for free atom density etc. : 0.40000000E+01 AA.
  Species Se                  : Basic radial grid will be enhanced according to radial_multiplier =   2, to contain   111 grid points.
  | MBD: Using the same k-grid sampling as DFT
 
  Finished reading input file 'control.in'. Consistency checks are next.
 
  MPI_IN_PLACE appears to work with this MPI implementation.
  | Keeping use_mpi_in_place .true. (see manual).
  Target number of points in a grid batch is not set. Defaulting to  100
  Method for grid partitioning is not set. Defaulting to parallel hash+maxmin partitioning.
  Batch size limit is not set. Defaulting to    200
  By default, will store active basis functions for each batch.
  If in need of memory, prune_basis_once .false. can be used to disable this option.
  communication_type for Hartree potential was not specified.
  Defaulting to calc_hartree .
  Defaulting to Pulay charge density mixer.
  Pulay mixer: Number of relevant iterations not set.
  Defaulting to    8 iterations.
  Pulay mixer: Number of initial linear mixing iterations not set.
  Defaulting to    0 iterations.
  Work space size for distributed Hartree potential not set.
  Defaulting to   0.200000E+03 MB.
  Mixing parameter for charge density mixing has not been set.
  Using default: charge_mix_param =     0.0500.
  The mixing parameter will be adjusted in iteration number     2 of the first full s.c.f. cycle only.
  Algorithm-dependent basis array size parameters:
  | n_max_pulay                         :        8
 * Notice: The s.c.f. convergence criterion sc_accuracy_rho was not provided.
 * We used to stop in this case, and ask the user to provide reasonable
 * scf convergence criteria. However, this led some users to employ criteria
 * that led to extremely long run times, e.g., for simple relaxation.
 * We now preset a default value for sc_accuracy_rho if it is not set.
 * You may still wish to check if this setting is too tight or too loose for your needs.
 * Based on n_atoms, FHI-aims chose sc_accuracy_rho =  0.100000E-05 .
  Maximum number of self-consistency iterations not provided.
  Presetting  1000 iterations.
  Presetting      1001 iterations before the initial mixing cycle
  is restarted anyway using the sc_init_iter criterion / keyword.
  Presetting a factor      1.000 between actual scf density residual
  and density convergence criterion sc_accuracy_rho below which sc_init_iter
  takes no effect.
 * No s.c.f. convergence criteria (sc_accuracy_*) were provided in control.in.
 * The run will proceed with a reasonable default guess, but please check whether.
 * the s.c.f. cycles seem to take too much or too little time.
  No maximum number of relaxation steps, defaulting to     1000
  Default initial Hessian is Lindh matrix (thres = 15.00) plus  0.200000E+01 eV/A^2 times unity.
  No maximum energy tolerance for TRM/BFGS moves, defaulting to   0.200000E-03
  No harmonic length scale. Defaulting to   0.250000E-01 A.
  No trust radius initializer. Defaulting to   0.200000E+00 A.
  Unit cell relaxation: Restricted relaxation with fixed angles between lattice vectors.
  Unit cell relaxation: Analytical stress will be used.
  Analytical stress will be computed.
  Analytical stress calculation: Only the upper triangle is calculated.
                                 Final output is symmetrized.
  Analytical stress calculation: scf convergence accuracy of stress not set.
                                 Analytical stress self-consistency will not be checked explicitly.
                                 Be sure to set other criteria like sc_accuracy_rho tight enough.
  Force calculation: scf convergence accuracy of forces not set.
  Defaulting to 'sc_accuracy_forces not_checked'.
  Handling of forces: Unphysical translation and rotation will be removed from forces.
  No accuracy limit for integral partition fn. given. Defaulting to  0.1000E-14.
  No threshold value for u(r) in integrations given. Defaulting to  0.1000E-05.
  No occupation type (smearing scheme) given. Defaulting to Gaussian broadening, width =  0.1000E-01 eV.
  The width will be adjusted in iteration number     2 of the first full s.c.f. cycle only.
  S.C.F. convergence parameters will be adjusted in iteration number     2 of the first full s.c.f. cycle only.
  No accuracy for occupation numbers given. Defaulting to  0.1000E-12.
  No threshold value for occupation numbers given. Defaulting to  0.0000E+00.
  No accuracy for fermi level given. Defaulting to  0.1000E-19.
  Maximum # of iterations to find E_F not set. Defaulting to  200.
  Preferred method for the eigenvalue solver ('KS_method') not specified in 'control.in'.
  Defaulting to serial version, 'lapack_fast', since more k-points than CPUs available.
  Will not use alltoall communication since running on < 1024 CPUs.
  Threshold for basis singularities not set.
  Default threshold for basis singularities:  0.1000E-04
  partition_type (choice of integration weights) for integrals was not specified.
  | Using a version of the partition function of Stratmann and coworkers ('stratmann_smoother').
  | At each grid point, the set of atoms used to build the partition table is smoothly restricted to
  | only those atoms whose free-atom density would be non-zero at that grid point.
  Partitioning for Hartree potential was not defined. Using partition_type for integrals.
  | Adjusted default value of keyword multip_moments_threshold to:       0.10000000E-11
  | This value may affect high angular momentum components of the Hartree potential in periodic systems.
  Angular momentum expansion for Kerker preconditioner not set explicitly.
  | Using default value of   0
  No explicit requirement for turning off preconditioner.
  | By default, it will be turned off when the charge convergence reaches
  | sc_accuracy_rho  =   0.100000E-05
  No special mixing parameter while Kerker preconditioner is on.
  Using default: charge_mix_param =     0.0500.
  No q(lm)/r^(l+1) cutoff set for long-range Hartree potential.
  | Using default value of  0.100000E-09 .
  | Verify using the multipole_threshold keyword.
  Defaulting to new monopole extrapolation.
  Density update method: automatic selection selected.
  Using density matrix based charge density update.
  Using density matrix based charge density update.
  Using packed matrix style: index .
  Geometry relaxation: A file "geometry.in.next_step" is written out by default after each step.
  | This file contains the geometry of the current relaxation step as well as
  | the current Hessian matrix needed to restart the relaxation algorithm.
  | If you do not want part or all of this information, use the keywords
  | "write_restart_geometry" or "hessian_to_restart_geometry" to switch the output off.
  Defaulting to use time-reversal symmetry for k-point grid.
------------------------------------------------------------


------------------------------------------------------------
          Reading geometry description geometry.in.
------------------------------------------------------------
  Input structure read successfully.
  The structure contains        3 atoms,  and a total of        140.000 electrons.

  Input geometry:
  | Unit cell:
  |        3.77354220        0.00000000        0.00000000
  |       -1.88677110        3.26798341        0.00000000
  |        0.00000000        0.00000000        6.92851860
  | Atomic structure:
  |       Atom                x [A]            y [A]            z [A]
  |    1: Species Hf            0.00000000        0.00000000        0.00000000
  |    2: Species Se            1.88677110        1.08932780        5.35336147
  |    3: Species Se            0.00000000        2.17865560        1.57515713

  Lattice parameters for 3D lattice (in Angstroms) :     3.773542    3.773542    6.928519
  Angle(s) between unit vectors (in degrees)      :    90.000000   90.000000  120.000000

  |

  | The smallest distance between any two atoms is         2.68843081 AA.
  |
  | The first atom of this pair is atom number                      3 .
  | The second atom of this pair is atom number                     1 .
  | Wigner-Seitz cell of the first atom image           0     1     0 .
  | (The Wigner-Seitz cell of the second atom is 0 0 0  by definition.)

  Quantities derived from the lattice vectors:
  | Reciprocal lattice vector 1:  1.665063  0.961325  0.000000
  | Reciprocal lattice vector 2:  0.000000  1.922649  0.000000
  | Reciprocal lattice vector 3:  0.000000  0.000000  0.906858
  | Unit cell volume                               :   0.854416E+02  A^3

  Range separation radius for Ewald summation (hartree_convergence_parameter):      4.41741038 bohr.

  Fractional coordinates:
                         L1                L2                L3
       atom_frac         0.00000000        0.00000000        0.00000000  Hf
       atom_frac         0.66666667        0.33333333        0.77265600  Se
       atom_frac         0.33333333        0.66666666        0.22734400  Se

  Number of empty states per atom not set in control.in - providing a guess from actual geometry.
  | Total number of empty states used during s.c.f. cycle:       20
  If you use a very high smearing, use empty_states (per atom!) in control.in to increase this value.

  Structure-dependent array size parameters: 
  | Maximum number of distinct radial functions  :       43
  | Maximum number of basis functions            :      237
  | Number of Kohn-Sham states (occupied + empty):       90
------------------------------------------------------------

------------------------------------------------------------
          Preparing all fixed parts of the calculation.
------------------------------------------------------------
  Determining machine precision:
    2.225073858507201E-308
  Setting up grids for atomic and cluster calculations.

  Creating wave function, potential, and density for free atoms.

  Species: Hf

  List of occupied orbitals and eigenvalues:
    n    l              occ      energy [Ha]    energy [eV]
    1    0           2.0000     -2584.841454    -70337.1147
    2    0           2.0000      -416.409620    -11331.0823
    3    0           2.0000       -93.828152     -2553.1939
    4    0           2.0000       -18.830205      -512.3959
    5    0           2.0000        -2.452388       -66.7329
    6    0           2.0000        -0.182075        -4.9545
    2    1           6.0000      -365.115746     -9935.3049
    3    1           6.0000       -78.772537     -2143.5098
    4    1           6.0000       -13.918099      -378.7307
    5    1           6.0000        -1.297904       -35.3178
    3    2          10.0000       -61.028236     -1660.6628
    4    2          10.0000        -7.585880      -206.4223
    5    2           2.0000        -0.092422        -2.5149
    4    3          14.0000        -0.614647       -16.7254


  Species: Se

  List of occupied orbitals and eigenvalues:
    n    l              occ      energy [Ha]    energy [eV]
    1    0           2.0000      -466.337810    -12689.6975
    2    0           2.0000       -59.202598     -1610.9847
    3    0           2.0000        -7.847116      -213.5309
    4    0           2.0000        -0.634372       -17.2621
    2    1           6.0000       -52.061107     -1416.6548
    3    1           6.0000        -5.620941      -152.9536
    4    1           4.0000        -0.238469        -6.4891
    3    2          10.0000        -1.951949       -53.1152

  Creating fixed part of basis set: Ionic, confined, hydrogenic.
 
  Hf                   ion:

  List of free ionic orbitals and eigenvalues:
    n    l      energy [Ha]    energy [eV]
    1    0     -2585.552822    -70356.4720
    2    0      -417.082963    -11349.4049
    3    0       -94.492979     -2571.2848
    4    0       -19.494122      -530.4620
    5    0        -3.115173       -84.7682
    6    0        -0.684769       -18.6335
    2    1      -365.788271     -9953.6053
    3    1       -79.437124     -2161.5941
    4    1       -14.582223      -396.8025
    5    1        -1.952578       -53.1323
    3    2       -61.692915     -1678.7496
    4    2        -8.250294      -224.5019
    5    2        -0.680962       -18.5299
    4    3        -1.278337       -34.7853


  List of ionic basis orbitals and eigenvalues:
    n    l      energy [Ha]    energy [eV]    outer radius [A]
    6    1        -0.471793       -12.8381       5.450410
    5    2        -0.680950       -18.5296       5.127232

 
  Hf                   hydrogenic:
 
  List of hydrogenic basis orbitals: 
    n    l      effective z      eigenvalue [eV]  inner max. [A]     outer max. [A]     outer radius [A]   
    4    3         6.000000       -30.6116           1.403147           1.403147           5.384184
    3    2         6.000000       -54.4226           0.789894           0.789894           4.165104
    5    4        10.800000       -63.4785           1.226596           1.226596           4.764611
    4    0         4.700000       -18.5431           0.082292           2.748600           5.517450
    5    3         9.600000       -50.1555           0.673827           1.813833           5.384184
    6    5        15.200000       -87.3182           1.256956           1.256956           4.593035
    3    1         2.300000        -7.5446           0.682115           2.649621           5.517450
    4    2         6.600000       -37.0405           0.547383           1.706283           5.384184
    3    0         2.100000        -5.6806           0.186672           2.994169           5.517450
 
 
  Se                   ion:

  List of free ionic orbitals and eigenvalues:
    n    l      energy [Ha]    energy [eV]
    1    0      -467.261007    -12714.8189
    2    0       -60.104893     -1635.5374
    3    0        -8.743714      -237.9286
    4    0        -1.414053       -38.4783
    2    1       -52.964156     -1441.2280
    3    1        -6.516916      -177.3343
    4    1        -0.961869       -26.1738
    3    2        -2.844511       -77.4031


  List of ionic basis orbitals and eigenvalues:
    n    l      energy [Ha]    energy [eV]    outer radius [A]
    4    0        -1.414046       -38.4782       4.083166

 
  Se                   hydrogenic:
 
  List of hydrogenic basis orbitals: 
    n    l      effective z      eigenvalue [eV]  inner max. [A]     outer max. [A]     outer radius [A]   
    3    2         4.300000       -27.9518           1.103845           1.103845           5.278265
    2    1         1.600000        -8.6828           1.326010           1.326010           5.475439
    4    3         7.200000       -44.0822           1.173422           1.173422           4.965294
    5    4        10.400000       -58.8635           1.278259           1.278259           4.904963
    4    1         4.500000       -16.9509           0.333121           2.727671           5.475439
    4    2         6.200000       -32.6848           0.577455           1.800022           5.408909
    4    3        11.200000      -106.6686           0.755651           0.755651           3.657749
    1    0         0.650000        -5.7375           0.813162           0.813162           5.408909
    6    5        15.200000       -87.3182           1.247385           1.247385           4.614127
 

  Adding cutoff potential to free-atom effective potential.
  Creating atomic-like basis functions for current effective potential.

  Species Hf                  :

  List of atomic basis orbitals and eigenvalues:
    n    l      energy [Ha]    energy [eV]    outer radius [A]
    1    0     -2584.841454    -70337.1147       0.135843
    2    0      -416.409620    -11331.0823       0.352500
    3    0       -93.828152     -2553.1939       0.752197
    4    0       -18.830205      -512.3959       1.605110
    5    0        -2.452388       -66.7329       4.165104
    6    0        -0.182075        -4.9545       5.450410
    2    1      -365.115746     -9935.3049       0.370165
    3    1       -78.772537     -2143.5098       0.799610
    4    1       -13.918099      -378.7307       1.813833
    5    1        -1.297904       -35.3178       4.942597
    3    2       -61.028236     -1660.6628       0.860465
    4    2        -7.585880      -206.4223       2.316232
    5    2        -0.092422        -2.5149       5.450410
    4    3        -0.614647       -16.7254       5.003391


  Species Se                  :

  List of atomic basis orbitals and eigenvalues:
    n    l      energy [Ha]    energy [eV]    outer radius [A]
    1    0      -466.337810    -12689.6975       0.309561
    2    0       -59.202598     -1610.9847       0.885812
    3    0        -7.847116      -213.5309       2.355489
    4    0        -0.634372       -17.2621       5.214131
    2    1       -52.061107     -1416.6548       0.907737
    3    1        -5.620941      -152.9536       2.694529
    4    1        -0.238469        -6.4891       5.408909
    3    2        -1.951949       -53.1152       4.083166

  Assembling full basis from fixed parts.
  | Species Hf :   atomic orbital   1 s accepted.
  | Species Hf :   atomic orbital   2 s accepted.
  | Species Hf :   atomic orbital   3 s accepted.
  | Species Hf :   atomic orbital   4 s accepted.
  | Species Hf :   atomic orbital   5 s accepted.
  | Species Hf :   atomic orbital   6 s accepted.
  | Species Hf :    hydro orbital   4 s accepted.
  | Species Hf :    hydro orbital   3 s accepted.
  | Species Hf :   atomic orbital   2 p accepted.
  | Species Hf :   atomic orbital   3 p accepted.
  | Species Hf :   atomic orbital   4 p accepted.
  | Species Hf :   atomic orbital   5 p accepted.
  | Species Hf :    ionic orbital   6 p accepted.
  | Species Hf :    hydro orbital   3 p accepted.
  | Species Hf :   atomic orbital   3 d accepted.
  | Species Hf :   atomic orbital   4 d accepted.
  | Species Hf :    hydro orbital   3 d accepted.
  | Species Hf :    ionic orbital   5 d accepted.
  | Species Hf :    hydro orbital   4 d accepted.
  | Species Hf :   atomic orbital   5 d accepted.
  | Species Hf :   atomic orbital   4 f accepted.
  | Species Hf :    hydro orbital   4 f accepted.
  | Species Hf :    hydro orbital   5 f accepted.
  | Species Hf :    hydro orbital   5 g accepted.
  | Species Hf :    hydro orbital   6 h accepted.
  | Species Se :   atomic orbital   1 s accepted.
  | Species Se :   atomic orbital   2 s accepted.
  | Species Se :   atomic orbital   3 s accepted.
  | Species Se :    ionic orbital   4 s accepted.
  | Species Se :   atomic orbital   4 s accepted.
  | Species Se :    hydro orbital   1 s accepted.
  | Species Se :   atomic orbital   2 p accepted.
  | Species Se :   atomic orbital   3 p accepted.
  | Species Se :   atomic orbital   4 p accepted.
  | Species Se :    hydro orbital   2 p accepted.
  | Species Se :    hydro orbital   4 p accepted.
  | Species Se :   atomic orbital   3 d accepted.
  | Species Se :    hydro orbital   3 d accepted.
  | Species Se :    hydro orbital   4 d accepted.
  | Species Se :    hydro orbital   4 f accepted.
  | Species Se :    hydro orbital   4 f accepted.
  | Species Se :    hydro orbital   5 g accepted.
  | Species Se :    hydro orbital   6 h accepted.
 
  Basis size parameters after reduction:
  | Total number of radial functions:       43
  | Total number of basis functions :      237
 
  Per-task memory consumption for arrays in subroutine allocate_ext:
  |          16.299720MB.
  Testing on-site integration grid accuracy.
  |  Species  Function  <phi|h_atom|phi> (log., in eV)  <phi|h_atom|phi> (rad., in eV)
           1        1             -70337.1146698938             -70337.1000195033
           1        2             -11331.0822838340             -11331.0819974324
           1        3              -2553.1939241433              -2553.1939033442
           1        4               -512.3959483215               -512.3959435004
           1        5                -66.7328606804                -66.7328595152
           1        6                 -4.9609826843                 -4.9609662995
           1        7                  4.4947479361                  4.4949913073
           1        8                 28.7527526448                 28.7552191400
           1        9              -9935.3049395807              -9935.3049326924
           1       10              -2143.5097894823              -2143.5097845624
           1       11               -378.7307348171               -378.7307317592
           1       12                -35.3177612045                -35.3177605023
           1       13                 -0.3051418017                 -0.3051279404
           1       14                  8.1710841034                  8.1714360954
           1       15              -1660.6627840964              -1660.6627822102
           1       16               -206.4223091258               -206.4223074349
           1       17                 -1.1108014108                 -1.1108011651
           1       18                  9.2663821216                  9.2663821089
           1       19                 53.6250270951                 53.6250287567
           1       20                 31.5406305910                 31.5416476097
           1       21                -16.7254068200                -16.7254064907
           1       22                 13.9532729765                 13.9532741914
           1       23                 48.0813797185                 48.0813797916
           1       24                 39.4113660380                 39.4113660061
           1       25                 65.3093031931                 65.3093031256
           2       26             -12689.6974611609             -12689.6967666984
           2       27              -1610.9846578580              -1610.9846472470
           2       28               -213.5308789869               -213.5308777267
           2       29                -17.0464428502                -17.0464426496
           2       30                  6.7356859379                  6.7356842047
           2       31                 16.3222979729                 16.3222286215
           2       32              -1416.6548010133              -1416.6548002108
           2       33               -152.9535734377               -152.9535727493
           2       34                 -6.4896265677                 -6.4896303794
           2       35                  5.2703037283                  5.2701679583
           2       36                 24.5827617535                 24.5824715668
           2       37                -53.1152220964                -53.1152219035
           2       38                  7.6186674138                  7.6186665630
           2       39                 26.7015845260                 26.7015708238
           2       40                 49.4570230857                 49.4570230427
           2       41                 39.6372293866                 39.6372304734
           2       42                 42.1067201496                 42.1067200432
           2       43                 70.4166767372                 70.4166768848

  Preparing densities etc. for the partition functions (integrals / Hartree potential).

  Preparations completed.
  max(cpu_time)          :      0.664 s.
  Wall clock time (cpu1) :      0.665 s.
------------------------------------------------------------

------------------------------------------------------------
          Begin self-consistency loop: Initialization.

          Date     :  20191127, Time     :  205413.882
------------------------------------------------------------

  Initializing index lists of integration centers etc. from given atomic structure:
  Mapping all atomic coordinates to central unit cell.

  Initializing the k-points
          Using symmetry for reducing the k-points
  | k-points reduced from:     5832 to     2920
  | Number of k-points                             :      2920
  The eigenvectors in the calculations are COMPLEX.
  | K-points in task   0:        36
  | K-points in task   1:        37
  | K-points in task   2:        37
  | K-points in task   3:        37
  | K-points in task   4:        37
  | K-points in task   5:        37
  | K-points in task   6:        37
  | K-points in task   7:        37
  | K-points in task   8:        37
  | K-points in task   9:        37
  | K-points in task  10:        37
  | K-points in task  11:        37
  | K-points in task  12:        37
  | K-points in task  13:        37
  | K-points in task  14:        37
  | K-points in task  15:        37
  | K-points in task  16:        37
  | K-points in task  17:        37
  | K-points in task  18:        37
  | K-points in task  19:        37
  | K-points in task  20:        37
  | K-points in task  21:        37
  | K-points in task  22:        37
  | K-points in task  23:        37
  | K-points in task  24:        37
  | K-points in task  25:        37
  | K-points in task  26:        37
  | K-points in task  27:        37
  | K-points in task  28:        37
  | K-points in task  29:        37
  | K-points in task  30:        37
  | K-points in task  31:        37
  | K-points in task  32:        37
  | K-points in task  33:        37
  | K-points in task  34:        37
  | K-points in task  35:        37
  | K-points in task  36:        37
  | K-points in task  37:        37
  | K-points in task  38:        37
  | K-points in task  39:        37
  | K-points in task  40:        37
  | K-points in task  41:        36
  | K-points in task  42:        36
  | K-points in task  43:        36
  | K-points in task  44:        36
  | K-points in task  45:        36
  | K-points in task  46:        36
  | K-points in task  47:        36
  | K-points in task  48:        36
  | K-points in task  49:        36
  | K-points in task  50:        36
  | K-points in task  51:        36
  | K-points in task  52:        36
  | K-points in task  53:        36
  | K-points in task  54:        36
  | K-points in task  55:        36
  | K-points in task  56:        36
  | K-points in task  57:        36
  | K-points in task  58:        36
  | K-points in task  59:        36
  | K-points in task  60:        36
  | K-points in task  61:        36
  | K-points in task  62:        36
  | K-points in task  63:        36
  | K-points in task  64:        36
  | K-points in task  65:        36
  | K-points in task  66:        36
  | K-points in task  67:        36
  | K-points in task  68:        36
  | K-points in task  69:        36
  | K-points in task  70:        36
  | K-points in task  71:        36
  | K-points in task  72:        36
  | K-points in task  73:        36
  | K-points in task  74:        36
  | K-points in task  75:        36
  | K-points in task  76:        36
  | K-points in task  77:        36
  | K-points in task  78:        36
  | K-points in task  79:        36
  | Number of basis functions in the Hamiltonian integrals :      6325
  | Number of basis functions in a single unit cell        :       237
  | Number of centers in hartree potential         :       855
  | Number of centers in hartree multipole         :       415
  | Number of centers in electron density summation:       281
  | Number of centers in basis integrals           :       303
  | Number of centers in integrals                 :       137
  | Number of centers in hamiltonian               :       281
  | Consuming       5201 KiB for k_phase.
  | Number of super-cells (origin) [n_cells]                     :        1183
  | Number of super-cells (after PM_index) [n_cells]             :         114
  | Number of super-cells in hamiltonian [n_cells_in_hamiltonian]:         114
  | Size of matrix packed + index [n_hamiltonian_matrix_size] :     1166602
  Initializing relaxation algorithms.
  Partitioning the integration grid into batches with parallel hashing+maxmin method.
  | Number of batches:     1133
  | Maximal batch size:     113
  | Minimal batch size:       1
  | Average batch size:      86.212
  | Standard deviation of batch sizes:      14.899

  Integration load balanced across    80 MPI tasks.
  Work distribution over tasks is as follows:
  Task     0 has       1233 integration points.
  Task     1 has       1195 integration points.
  Task     2 has       1226 integration points.
  Task     3 has       1174 integration points.
  Task     4 has       1174 integration points.
  Task     5 has       1181 integration points.
  Task     6 has       1231 integration points.
  Task     7 has       1233 integration points.
  Task     8 has       1207 integration points.
  Task     9 has       1257 integration points.
  Task    10 has       1230 integration points.
  Task    11 has       1179 integration points.
  Task    12 has       1221 integration points.
  Task    13 has       1234 integration points.
  Task    14 has       1224 integration points.
  Task    15 has       1190 integration points.
  Task    16 has       1260 integration points.
  Task    17 has       1204 integration points.
  Task    18 has       1263 integration points.
  Task    19 has       1254 integration points.
  Task    20 has       1174 integration points.
  Task    21 has       1259 integration points.
  Task    22 has       1220 integration points.
  Task    23 has       1195 integration points.
  Task    24 has       1205 integration points.
  Task    25 has       1257 integration points.
  Task    26 has       1212 integration points.
  Task    27 has       1261 integration points.
  Task    28 has       1200 integration points.
  Task    29 has       1264 integration points.
  Task    30 has       1182 integration points.
  Task    31 has       1191 integration points.
  Task    32 has       1228 integration points.
  Task    33 has       1239 integration points.
  Task    34 has       1224 integration points.
  Task    35 has       1224 integration points.
  Task    36 has       1180 integration points.
  Task    37 has       1219 integration points.
  Task    38 has       1261 integration points.
  Task    39 has       1192 integration points.
  Task    40 has       1219 integration points.
  Task    41 has       1222 integration points.
  Task    42 has       1214 integration points.
  Task    43 has       1187 integration points.
  Task    44 has       1235 integration points.
  Task    45 has       1204 integration points.
  Task    46 has       1258 integration points.
  Task    47 has       1224 integration points.
  Task    48 has       1176 integration points.
  Task    49 has       1235 integration points.
  Task    50 has       1262 integration points.
  Task    51 has       1259 integration points.
  Task    52 has       1206 integration points.
  Task    53 has       1238 integration points.
  Task    54 has       1223 integration points.
  Task    55 has       1229 integration points.
  Task    56 has       1228 integration points.
  Task    57 has       1260 integration points.
  Task    58 has       1232 integration points.
  Task    59 has       1229 integration points.
  Task    60 has       1195 integration points.
  Task    61 has       1209 integration points.
  Task    62 has       1257 integration points.
  Task    63 has       1178 integration points.
  Task    64 has       1238 integration points.
  Task    65 has       1258 integration points.
  Task    66 has       1226 integration points.
  Task    67 has       1227 integration points.
  Task    68 has       1210 integration points.
  Task    69 has       1207 integration points.
  Task    70 has       1226 integration points.
  Task    71 has       1234 integration points.
  Task    72 has       1254 integration points.
  Task    73 has       1171 integration points.
  Task    74 has       1220 integration points.
  Task    75 has       1221 integration points.
  Task    76 has       1221 integration points.
  Task    77 has       1219 integration points.
  Task    78 has       1240 integration points.
  Task    79 has       1170 integration points.
  Initializing partition tables, free-atom densities, potentials, etc. across the integration grid (initialize_grid_storage).
  | initialize_grid_storage: Actual outermost partition radius vs. multipole_radius_free
  | (-- VB: in principle, multipole_radius_free should be larger, hence this output)
  | Species        1: Confinement radius =              6.000000000000000 AA, multipole_radius_free =              6.010396164504727 AA.
  | Species        1: outer_partition_radius set to              6.010396164504727 AA .
  | Species        2: Confinement radius =              6.000000000000000 AA, multipole_radius_free =              6.037996416842453 AA.
  | Species        2: outer_partition_radius set to              6.037996416842453 AA .
  | Original list of interatomic distances with         303 x        303 entries is created.
  | Net number of integration points:    97678
  | of which are non-zero points    :    83728
  | Numerical average free-atom electrostatic potential    :    -15.12720529 eV
  Renormalizing the initial density to the exact electron count on the 3D integration grid.
  | Initial density: Formal number of electrons (from input files) :     140.0000000000
  | Integrated number of electrons on 3D grid     :     139.9999061953
  | Charge integration error                      :      -0.0000938047
  | Normalization factor for density and gradient :       1.0000006700
  Obtaining max. number of non-zero basis functions in each batch (get_n_compute_maxes).
  | Maximal number of non-zero basis functions:     1668 in task     0
  | Maximal number of non-zero basis functions:     1720 in task     1
  | Maximal number of non-zero basis functions:     1843 in task     2
  | Maximal number of non-zero basis functions:     1654 in task     3
  | Maximal number of non-zero basis functions:     1789 in task     4
  | Maximal number of non-zero basis functions:     1658 in task     5
  | Maximal number of non-zero basis functions:     1705 in task     6
  | Maximal number of non-zero basis functions:     1679 in task     7
  | Maximal number of non-zero basis functions:     1669 in task     8
  | Maximal number of non-zero basis functions:     1749 in task     9
  | Maximal number of non-zero basis functions:     1687 in task    10
  | Maximal number of non-zero basis functions:     1760 in task    11
  | Maximal number of non-zero basis functions:     1706 in task    12
  | Maximal number of non-zero basis functions:     1710 in task    13
  | Maximal number of non-zero basis functions:     1744 in task    14
  | Maximal number of non-zero basis functions:     1722 in task    15
  | Maximal number of non-zero basis functions:     1695 in task    16
  | Maximal number of non-zero basis functions:     1646 in task    17
  | Maximal number of non-zero basis functions:     1681 in task    18
  | Maximal number of non-zero basis functions:     1635 in task    19
  | Maximal number of non-zero basis functions:     1688 in task    20
  | Maximal number of non-zero basis functions:     1753 in task    21
  | Maximal number of non-zero basis functions:     1697 in task    22
  | Maximal number of non-zero basis functions:     1693 in task    23
  | Maximal number of non-zero basis functions:     1629 in task    24
  | Maximal number of non-zero basis functions:     1716 in task    25
  | Maximal number of non-zero basis functions:     1781 in task    26
  | Maximal number of non-zero basis functions:     1740 in task    27
  | Maximal number of non-zero basis functions:     1730 in task    28
  | Maximal number of non-zero basis functions:     1704 in task    29
  | Maximal number of non-zero basis functions:     1840 in task    30
  | Maximal number of non-zero basis functions:     1811 in task    31
  | Maximal number of non-zero basis functions:     1668 in task    32
  | Maximal number of non-zero basis functions:     1838 in task    33
  | Maximal number of non-zero basis functions:     1870 in task    34
  | Maximal number of non-zero basis functions:     1889 in task    35
  | Maximal number of non-zero basis functions:     1712 in task    36
  | Maximal number of non-zero basis functions:     1783 in task    37
  | Maximal number of non-zero basis functions:     1743 in task    38
  | Maximal number of non-zero basis functions:     1779 in task    39
  | Maximal number of non-zero basis functions:     1816 in task    40
  | Maximal number of non-zero basis functions:     1749 in task    41
  | Maximal number of non-zero basis functions:     1726 in task    42
  | Maximal number of non-zero basis functions:     1667 in task    43
  | Maximal number of non-zero basis functions:     1706 in task    44
  | Maximal number of non-zero basis functions:     1746 in task    45
  | Maximal number of non-zero basis functions:     1692 in task    46
  | Maximal number of non-zero basis functions:     1735 in task    47
  | Maximal number of non-zero basis functions:     1709 in task    48
  | Maximal number of non-zero basis functions:     1752 in task    49
  | Maximal number of non-zero basis functions:     1726 in task    50
  | Maximal number of non-zero basis functions:     1716 in task    51
  | Maximal number of non-zero basis functions:     1678 in task    52
  | Maximal number of non-zero basis functions:     1773 in task    53
  | Maximal number of non-zero basis functions:     1825 in task    54
  | Maximal number of non-zero basis functions:     1830 in task    55
  | Maximal number of non-zero basis functions:     1817 in task    56
  | Maximal number of non-zero basis functions:     1689 in task    57
  | Maximal number of non-zero basis functions:     1725 in task    58
  | Maximal number of non-zero basis functions:     1680 in task    59
  | Maximal number of non-zero basis functions:     1833 in task    60
  | Maximal number of non-zero basis functions:     1701 in task    61
  | Maximal number of non-zero basis functions:     1815 in task    62
  | Maximal number of non-zero basis functions:     1849 in task    63
  | Maximal number of non-zero basis functions:     1730 in task    64
  | Maximal number of non-zero basis functions:     1659 in task    65
  | Maximal number of non-zero basis functions:     1727 in task    66
  | Maximal number of non-zero basis functions:     1709 in task    67
  | Maximal number of non-zero basis functions:     1663 in task    68
  | Maximal number of non-zero basis functions:     1718 in task    69
  | Maximal number of non-zero basis functions:     1692 in task    70
  | Maximal number of non-zero basis functions:     1681 in task    71
  | Maximal number of non-zero basis functions:     1704 in task    72
  | Maximal number of non-zero basis functions:     1642 in task    73
  | Maximal number of non-zero basis functions:     1712 in task    74
  | Maximal number of non-zero basis functions:     1658 in task    75
  | Maximal number of non-zero basis functions:     1706 in task    76
  | Maximal number of non-zero basis functions:     1675 in task    77
  | Maximal number of non-zero basis functions:     1741 in task    78
  | Maximal number of non-zero basis functions:     1633 in task    79
  Allocating       12.286 MB for KS_eigenvector_complex
  Integrating Hamiltonian matrix: batch-based integration.
  Time summed over all CPUs for integration: real work       37.388 s, elapsed       40.493 s
  Integrating overlap matrix.
  Time summed over all CPUs for integration: real work       27.659 s, elapsed       30.123 s
  Decreasing sparse matrix size:
   Tolerance:  9.999999824516700E-014
   Hamiltonian matrix
  | Array has   925345 nonzero elements out of  1166602 elements
  | Sparsity factor is 0.207
   Overlap matrix
  | Array has   844378 nonzero elements out of  1166602 elements
  | Sparsity factor is 0.276
  New size of hamiltonian matrix:      930366

  Updating Kohn-Sham eigenvalues and eigenvectors using ELSI and the ELPA eigensolver.
  Overlap matrix is nonsingular
  | Lowest eigenvalue of overlap  :  0.75E-04
  | Highest eigenvalue of overlap :  0.89E+01
  Finished singularity check of overlap matrix
  | Time :     0.008 s
  Finished Cholesky decomposition
  | Time :     0.003 s
  Finished transformation to standard eigenproblem
  | Time :     0.004 s
  Starting LAPACK eigensolver
  Finished solving standard eigenproblem
  | Time :     0.009 s
  Finished back-transformation of eigenvectors
  | Time :     0.001 s

  Obtaining occupation numbers and chemical potential using ELSI.
  | Chemical potential (Fermi level):    -6.53072841eV
  Writing Kohn-Sham eigenvalues.
  K-point:       1 at    0.000000    0.000000    0.000000 (in units of recip. lattice)

  State    Occupation    Eigenvalue [Ha]    Eigenvalue [eV]
      1       2.00000       -2584.851406       -70337.38550
      2       2.00000        -466.357342       -12690.22895
      3       2.00000        -466.357342       -12690.22895
      4       2.00000        -416.418077       -11331.31241
      5       2.00000        -365.124002        -9935.52962
      6       2.00000        -365.124002        -9935.52962
      7       2.00000        -365.124000        -9935.52955
      8       2.00000         -93.836630        -2553.42462
      9       2.00000         -78.780982        -2143.73958
     10       2.00000         -78.780982        -2143.73958
     11       2.00000         -78.780963        -2143.73908
     12       2.00000         -61.036646        -1660.89164
     13       2.00000         -61.036646        -1660.89164
     14       2.00000         -61.036635        -1660.89135
     15       2.00000         -61.036635        -1660.89135
     16       2.00000         -61.036631        -1660.89124
     17       2.00000         -59.222624        -1611.52959
     18       2.00000         -59.222624        -1611.52959
     19       2.00000         -52.081094        -1417.19868
     20       2.00000         -52.081094        -1417.19868
     21       2.00000         -52.081091        -1417.19858
     22       2.00000         -52.081091        -1417.19858
     23       2.00000         -52.081091        -1417.19858
     24       2.00000         -52.081091        -1417.19858
     25       2.00000         -18.839496         -512.64876
     26       2.00000         -13.927575         -378.98859
     27       2.00000         -13.927575         -378.98859
     28       2.00000         -13.927466         -378.98563
     29       2.00000          -7.869456         -214.13878
     30       2.00000          -7.869455         -214.13878
     31       2.00000          -7.595642         -206.68792
     32       2.00000          -7.595642         -206.68792
     33       2.00000          -7.595541         -206.68520
     34       2.00000          -7.595541         -206.68520
     35       2.00000          -7.595479         -206.68350
     36       2.00000          -5.643520         -153.56798
     37       2.00000          -5.643520         -153.56798
     38       2.00000          -5.643486         -153.56708
     39       2.00000          -5.643486         -153.56708
     40       2.00000          -5.643486         -153.56708
     41       2.00000          -5.643486         -153.56708
     42       2.00000          -2.469340          -67.19416
     43       2.00000          -1.975547          -53.75736
     44       2.00000          -1.975547          -53.75736
     45       2.00000          -1.975541          -53.75722
     46       2.00000          -1.975541          -53.75722
     47       2.00000          -1.975234          -53.74885
     48       2.00000          -1.975228          -53.74868
     49       2.00000          -1.975184          -53.74750
     50       2.00000          -1.975184          -53.74750
     51       2.00000          -1.975178          -53.74732
     52       2.00000          -1.975178          -53.74731
     53       2.00000          -1.322221          -35.97946
     54       2.00000          -1.320214          -35.92486
     55       2.00000          -1.320214          -35.92486
     56       2.00000          -0.731532          -19.90599
     57       2.00000          -0.693111          -18.86051
     58       2.00000          -0.626922          -17.05941
     59       2.00000          -0.626922          -17.05941
     60       2.00000          -0.626115          -17.03746
     61       2.00000          -0.625919          -17.03212
     62       2.00000          -0.625919          -17.03212
     63       2.00000          -0.625841          -17.03000
     64       2.00000          -0.625192          -17.01234
     65       2.00000          -0.400682          -10.90312
     66       2.00000          -0.320586           -8.72359
     67       2.00000          -0.320586           -8.72358
     68       2.00000          -0.262002           -7.12943
     69       2.00000          -0.241266           -6.56518
     70       2.00000          -0.241266           -6.56518
     71       0.00000          -0.150074           -4.08373
     72       0.00000          -0.150073           -4.08369
     73       0.00000          -0.141859           -3.86019
     74       0.00000          -0.080405           -2.18792
     75       0.00000          -0.036633           -0.99684
     76       0.00000          -0.036633           -0.99683
     77       0.00000          -0.035187           -0.95750
     78       0.00000           0.109506            2.97982
     79       0.00000           0.109511            2.97995
     80       0.00000           0.133914            3.64399
     81       0.00000           0.195491            5.31957
     82       0.00000           0.231920            6.31088
     83       0.00000           0.281449            7.65862
     84       0.00000           0.281479            7.65943
     85       0.00000           0.292176            7.95051
     86       0.00000           0.292182            7.95068
     87       0.00000           0.349309            9.50519
     88       0.00000           0.358588            9.75767
     89       0.00000           0.365760            9.95283
     90       0.00000           0.365760            9.95285

  What follows are estimated values for band gap, HOMO, LUMO, etc.
  | They are estimated on a discrete k-point grid and not necessarily exact.
  | For converged numbers, create a DOS and/or band structure plot on a denser k-grid.

  Highest occupied state (VBM) at     -6.56518316 eV (relative to internal zero)
  | Occupation number:      1.99999890
  | K-point:       1 at    0.000000    0.000000    0.000000 (in units of recip. lattice)

  Lowest unoccupied state (CBM) at    -5.21784774 eV (relative to internal zero)
  | Occupation number:      0.00000000
  | K-point:     126 at    0.000000    0.500000    0.500000 (in units of recip. lattice)

  ESTIMATED overall HOMO-LUMO gap:      1.34733542 eV between HOMO at k-point 1 and LUMO at k-point 126
  | This appears to be an indirect band gap.
  | Smallest direct gap :      2.41533565 eV for k_point 126 at    0.000000    0.500000    0.500000 (in units of recip. lattice)
  The gap value is above 0.2 eV. Unless you are using a very sparse k-point grid,
  this system is most likely an insulator or a semiconductor.
  Calculating total energy contributions from superposition of free atom densities.

  Total energy components:
  | Sum of eigenvalues            :      -12555.55763802 Ha     -341654.10649994 eV
  | XC energy correction          :        -488.17032082 Ha      -13283.79030124 eV
  | XC potential correction       :         637.21493009 Ha       17339.50047176 eV
  | Free-atom electrostatic energy:       -7997.22746519 Ha     -217615.63148917 eV
  | Hartree energy correction     :           0.00000000 Ha           0.00000000 eV
  | Entropy correction            :          -0.00000000 Ha          -0.00000000 eV
  | ---------------------------
  | Total energy                  :      -20403.74049393 Ha     -555214.02781860 eV
  | Total energy, T -> 0          :      -20403.74049393 Ha     -555214.02781860 eV  <-- do not rely on this value for anything but (periodic) metals
  | Electronic free energy        :      -20403.74049393 Ha     -555214.02781860 eV

  Derived energy quantities:
  | Kinetic energy                :       22019.54584750 Ha      599182.32857160 eV
  | Electrostatic energy          :      -41935.11602061 Ha    -1141112.56608896 eV
  | Energy correction for multipole
  | error in Hartree potential    :           0.00000000 Ha           0.00000000 eV
  | Sum of eigenvalues per atom                           :     -113884.70216665 eV
  | Total energy (T->0) per atom                          :     -185071.34260620 eV  <-- do not rely on this value for anything but (periodic) metals
  | Electronic free energy per atom                       :     -185071.34260620 eV
  Initialize hartree_potential_storage
  Max. number of atoms included in rho_multipole:            3

  End scf initialization - timings             :  max(cpu_time)    wall_clock(cpu1)
  | Time for scf. initialization               :        4.280 s           4.273 s
  | Boundary condition initialization          :        0.328 s           0.329 s
  | Relaxation initialization                  :        0.004 s           0.001 s
  | Integration                                :        1.724 s           1.714 s
  | Solution of K.-S. eqns.                    :        1.932 s           1.937 s
  | Grid partitioning                          :        0.164 s           0.160 s
  | Preloading free-atom quantities on grid    :        0.016 s           0.014 s
  | Free-atom superposition energy             :        0.008 s           0.007 s
  | Total energy evaluation                    :        0.008 s           0.008 s

  Partial memory accounting:
  | Current value for overall tracked memory usage on task 0  :          30.895 MB
  | Peak value for overall tracked memory usage on task 0     :          62.441 MB after allocating wave
  | Largest tracked array allocation on task 0 so far         :          22.258 MB  when allocating hamiltonian_shell
  Note:  These values currently only include a subset of arrays which are explicitly tracked.
  The "true" memory usage will be greater.
------------------------------------------------------------

------------------------------------------------------------
          Begin self-consistency iteration #    1

  Date     :  20191127, Time     :  205418.156
------------------------------------------------------------
  Evaluating new KS density using the density matrix
  Evaluating density matrix
  Time summed over all CPUs for getting density from density matrix: real work       80.417 s, elapsed       85.846 s
  Integration grid: deviation in total charge (<rho> - N_e) =  -7.395897E-10
  Pulay mixing of updated and previous charge densities.

  Evaluating partitioned Hartree potential by multipole expansion.
  | Analytical far-field extrapolation by fixed multipoles:
  | Hartree multipole sum: apparent total charge =   0.254003E-03
  Summing up the Hartree potential.
  | Estimated reciprocal-space cutoff momentum G_max:         2.17838916 bohr^-1 .
  | Reciprocal lattice points for long-range Hartree potential:     110
  Time summed over all CPUs for potential: real work        6.762 s, elapsed        7.117 s
  | RMS charge density error from multipole expansion :   0.241933E-03
  | Average real-space part of the electrostatic potential :      0.00853553 eV

  Integrating Hamiltonian matrix: batch-based integration.
  Time summed over all CPUs for integration: real work       35.740 s, elapsed       38.544 s

  Updating Kohn-Sham eigenvalues and eigenvectors using ELSI and the ELPA eigensolver.
  Finished Cholesky decomposition
  | Time :     0.002 s
  Finished transformation to standard eigenproblem
  | Time :     0.004 s
  Starting LAPACK eigensolver
  Finished solving standard eigenproblem
  | Time :     0.009 s
  Finished back-transformation of eigenvectors
  | Time :     0.001 s

  Obtaining occupation numbers and chemical potential using ELSI.
  | Chemical potential (Fermi level):    -6.48738245eV
  Writing Kohn-Sham eigenvalues.
  K-point:       1 at    0.000000    0.000000    0.000000 (in units of recip. lattice)

  State    Occupation    Eigenvalue [Ha]    Eigenvalue [eV]
      1       2.00000       -2584.859209       -70337.59781
      2       2.00000        -466.352933       -12690.10897
      3       2.00000        -466.352933       -12690.10897
      4       2.00000        -416.425875       -11331.52461
      5       2.00000        -365.131812        -9935.74214
      6       2.00000        -365.131812        -9935.74214
      7       2.00000        -365.131809        -9935.74206
      8       2.00000         -93.844017        -2553.62562
      9       2.00000         -78.788366        -2143.94053
     10       2.00000         -78.788366        -2143.94053
     11       2.00000         -78.788345        -2143.93995
     12       2.00000         -61.044107        -1661.09466
     13       2.00000         -61.044107        -1661.09466
     14       2.00000         -61.044091        -1661.09424
     15       2.00000         -61.044091        -1661.09424
     16       2.00000         -61.044091        -1661.09424
     17       2.00000         -59.218737        -1611.42383
     18       2.00000         -59.218737        -1611.42383
     19       2.00000         -52.077141        -1417.09111
     20       2.00000         -52.077141        -1417.09111
     21       2.00000         -52.077137        -1417.09099
     22       2.00000         -52.077137        -1417.09099
     23       2.00000         -52.077137        -1417.09099
     24       2.00000         -52.077137        -1417.09099
     25       2.00000         -18.845899         -512.82301
     26       2.00000         -13.933868         -379.15984
     27       2.00000         -13.933868         -379.15984
     28       2.00000         -13.933772         -379.15723
     29       2.00000          -7.866012         -214.04506
     30       2.00000          -7.866012         -214.04506
     31       2.00000          -7.601801         -206.85553
     32       2.00000          -7.601801         -206.85553
     33       2.00000          -7.601723         -206.85340
     34       2.00000          -7.601723         -206.85340
     35       2.00000          -7.601683         -206.85232
     36       2.00000          -5.640079         -153.47437
     37       2.00000          -5.640079         -153.47437
     38       2.00000          -5.640049         -153.47354
     39       2.00000          -5.640049         -153.47354
     40       2.00000          -5.640049         -153.47354
     41       2.00000          -5.640049         -153.47354
     42       2.00000          -2.473739          -67.31386
     43       2.00000          -1.972142          -53.66471
     44       2.00000          -1.972142          -53.66470
     45       2.00000          -1.972136          -53.66456
     46       2.00000          -1.972136          -53.66456
     47       2.00000          -1.971830          -53.65623
     48       2.00000          -1.971824          -53.65607
     49       2.00000          -1.971786          -53.65504
     50       2.00000          -1.971786          -53.65504
     51       2.00000          -1.971779          -53.65484
     52       2.00000          -1.971779          -53.65484
     53       2.00000          -1.326026          -36.08301
     54       2.00000          -1.323933          -36.02605
     55       2.00000          -1.323933          -36.02605
     56       2.00000          -0.729755          -19.85766
     57       2.00000          -0.691396          -18.81385
     58       2.00000          -0.632627          -17.21465
     59       2.00000          -0.632626          -17.21464
     60       2.00000          -0.631877          -17.19424
     61       2.00000          -0.631691          -17.18918
     62       2.00000          -0.631691          -17.18918
     63       2.00000          -0.631588          -17.18639
     64       2.00000          -0.630741          -17.16332
     65       2.00000          -0.400001          -10.88458
     66       2.00000          -0.319852           -8.70361
     67       2.00000          -0.319852           -8.70361
     68       2.00000          -0.260440           -7.08692
     69       2.00000          -0.239673           -6.52183
     70       2.00000          -0.239673           -6.52183
     71       0.00000          -0.151384           -4.11936
     72       0.00000          -0.151382           -4.11932
     73       0.00000          -0.143060           -3.89286
     74       0.00000          -0.079756           -2.17027
     75       0.00000          -0.037104           -1.00966
     76       0.00000          -0.037104           -1.00965
     77       0.00000          -0.034775           -0.94629
     78       0.00000           0.109842            2.98896
     79       0.00000           0.109847            2.98909
     80       0.00000           0.134795            3.66796
     81       0.00000           0.195749            5.32661
     82       0.00000           0.231831            6.30845
     83       0.00000           0.281259            7.65346
     84       0.00000           0.281289            7.65426
     85       0.00000           0.292748            7.96607
     86       0.00000           0.292754            7.96624
     87       0.00000           0.349289            9.50465
     88       0.00000           0.358017            9.74215
     89       0.00000           0.365724            9.95185
     90       0.00000           0.365725            9.95187

  What follows are estimated values for band gap, HOMO, LUMO, etc.
  | They are estimated on a discrete k-point grid and not necessarily exact.
  | For converged numbers, create a DOS and/or band structure plot on a denser k-grid.

  Highest occupied state (VBM) at     -6.52183147 eV (relative to internal zero)
  | Occupation number:      1.99999889
  | K-point:       1 at    0.000000    0.000000    0.000000 (in units of recip. lattice)

  Lowest unoccupied state (CBM) at    -5.23828332 eV (relative to internal zero)
  | Occupation number:      0.00000000
  | K-point:     126 at    0.000000    0.500000    0.500000 (in units of recip. lattice)

  ESTIMATED overall HOMO-LUMO gap:      1.28354814 eV between HOMO at k-point 1 and LUMO at k-point 126
  | This appears to be an indirect band gap.
  | Smallest direct gap :      2.35752520 eV for k_point 126 at    0.000000    0.500000    0.500000 (in units of recip. lattice)
  The gap value is above 0.2 eV. Unless you are using a very sparse k-point grid,
  this system is most likely an insulator or a semiconductor.

  Total energy components:
  | Sum of eigenvalues            :      -12555.77039170 Ha     -341659.89582220 eV
  | XC energy correction          :        -488.16843464 Ha      -13283.73897584 eV
  | XC potential correction       :         637.21219484 Ha       17339.42604187 eV
  | Free-atom electrostatic energy:       -7997.22746519 Ha     -217615.63148917 eV
  | Hartree energy correction     :           0.21702811 Ha           5.90563525 eV
  | Entropy correction            :          -0.00000000 Ha          -0.00000000 eV
  | ---------------------------
  | Total energy                  :      -20403.73706858 Ha     -555213.93461009 eV
  | Total energy, T -> 0          :      -20403.73706858 Ha     -555213.93461009 eV  <-- do not rely on this value for anything but (periodic) metals
  | Electronic free energy        :      -20403.73706858 Ha     -555213.93461009 eV

  Derived energy quantities:
  | Kinetic energy                :       22019.50022382 Ha      599181.08708818 eV
  | Electrostatic energy          :      -41935.06885776 Ha    -1141111.28272243 eV
  | Energy correction for multipole
  | error in Hartree potential    :          -0.00004139 Ha          -0.00112620 eV
  | Sum of eigenvalues per atom                           :     -113886.63194073 eV
  | Total energy (T->0) per atom                          :     -185071.31153670 eV  <-- do not rely on this value for anything but (periodic) metals
  | Electronic free energy per atom                       :     -185071.31153670 eV

  Self-consistency convergence accuracy:
  | Change of charge density      :  0.1506E+00
  | Change of sum of eigenvalues  : -0.5789E+01 eV
  | Change of total energy        :  0.9321E-01 eV

  End self-consistency iteration #     1       :  max(cpu_time)    wall_clock(cpu1)
  | Time for this iteration                    :        3.676 s           3.672 s
  | Charge density update                      :        1.484 s           1.481 s
  | Density mixing & preconditioning           :        0.068 s           0.065 s
  | Hartree multipole update                   :        0.012 s           0.011 s
  | Hartree multipole summation                :        0.104 s           0.103 s
  | Integration                                :        0.632 s           0.628 s
  | Solution of K.-S. eqns.                    :        1.376 s           1.374 s
[...]
  |   0.163858     84.625     84.677     70.152      0.012     -0.006      0.012
  |   0.260739     63.369     63.412     57.650      0.013     -0.006      0.010
  |   0.399006     42.345     42.369     40.954      0.009     -0.004      0.006
  |   0.600000     24.997     25.005     24.758      0.004     -0.002      0.002
  |   0.902242     13.128     13.130     13.091      0.001     -0.000      0.001
  |   1.380693      6.162      6.162      6.156      0.000     -0.000      0.000
  |   2.197021      2.551      2.551      2.551      0.000     -0.000      0.000
  |   3.754417      0.893      0.893      0.892      0.000     -0.000      0.000
  |   7.305481      0.238      0.238      0.238      0.000     -0.000      0.000
  |  18.530638      0.037      0.037      0.037      0.000     -0.000      0.000
  |  99.337689      0.001      0.001      0.001      0.000     -0.000      0.000
  | --------------------------------------------------------------
  | Partitioned atomic C6 coefficients and polarizabilities (a.u.)
  | --------------------------------------------------------------
  | ATOM   1  Hf  868.703856         77.785894
  | ATOM   2  Se  141.936001         13.773119
  | ATOM   3  Se  141.916703         13.770030
  | --------------------------------------------------------------
  | Computing MBD@rsSCS energy...
    WARNING: Found 680 Negative Eigenvalues.
  | --------------------------------------------------------------

  Total energy components:
  | Sum of eigenvalues            :      -12557.70153295 Ha     -341712.44484938 eV
  | XC energy correction          :        -488.22089549 Ha      -13285.16650817 eV
  | XC potential correction       :         637.28012226 Ha       17341.27444098 eV
  | Free-atom electrostatic energy:       -7997.01768928 Ha     -217609.92319620 eV
  | Hartree energy correction     :           1.94416956 Ha          52.90354538 eV
  | Entropy correction            :          -0.00000000 Ha          -0.00000000 eV
  | ---------------------------
  | Total energy                  :      -20403.76068869 Ha     -555214.57734605 eV
  | Total energy, T -> 0          :      -20403.76068869 Ha     -555214.57734605 eV  <-- do not rely on this value for anything but (periodic) metals
  | Electronic free energy        :      -20403.76068869 Ha     -555214.57734605 eV

  Derived energy quantities:
  | Kinetic energy                :       22019.57670362 Ha      599183.16820936 eV
  | Electrostatic energy          :      -41935.07163403 Ha    -1141111.35826858 eV
  | Energy correction for multipole
  | error in Hartree potential    :          -0.00077708 Ha          -0.02114547 eV
  | Sum of eigenvalues per atom                           :     -113904.14828313 eV
  | Total energy (T->0) per atom                          :     -185071.52578202 eV  <-- do not rely on this value for anything but (periodic) metals
  | Electronic free energy per atom                       :     -185071.52578202 eV

  atomic forces [eV/Ang]:
  -----------------------
  atom #    1
   Hellmann-Feynman              :  0.385092E-02 -0.188915E-02 -0.421708E-02
   Ionic forces                  :  0.000000E+00  0.000000E+00  0.000000E+00
   Multipole                     :  0.390959E-06 -0.772692E-08  0.258856E-03
   Pulay + GGA                   : -0.410972E-02  0.200970E-02  0.911804E-03
   Van der Waals                 :  0.103358E-05 -0.365475E-06 -0.232448E-04
   ----------------------------------------------------------------
   Total forces(   1)            : -0.257371E-03  0.120179E-03 -0.306967E-02
  atom #    2
   Hellmann-Feynman              : -0.879333E-02  0.128116E-01 -0.127434E+02
   Ionic forces                  :  0.000000E+00  0.000000E+00  0.000000E+00
   Multipole                     : -0.469993E-05 -0.130755E-03 -0.833954E-01
   Pulay + GGA                   :  0.128927E-01 -0.210730E-01  0.128793E+02
   Van der Waals                 :  0.942089E-03 -0.417876E-03 -0.519872E-01
   ----------------------------------------------------------------
   Total forces(   2)            :  0.503676E-02 -0.881002E-02  0.438628E-03
  atom #    3
   Hellmann-Feynman              :  0.694598E-02 -0.119246E-01  0.127325E+02
   Ionic forces                  :  0.000000E+00  0.000000E+00  0.000000E+00
   Multipole                     :  0.545365E-04  0.106422E-03  0.834919E-01
   Pulay + GGA                   : -0.108369E-01  0.200912E-01 -0.128654E+02
   Van der Waals                 : -0.943122E-03  0.418242E-03  0.520104E-01
   ----------------------------------------------------------------
   Total forces(   3)            : -0.477950E-02  0.869120E-02  0.264095E-02


  Analytical stress tensor components [eV]         xx                  yy                  zz                  xy                  xz                  yz
  -----------------------------------------------------------------------------------------------------------------------------------------------------------
    Nuclear Hellmann-Feynman      :    -0.5893065730E+02   -0.5898285951E+02   -0.4716860125E+02   -0.1161647649E-01    0.1047449503E-01   -0.2186101029E-01
    Multipole Hellmann-Feynman    :    -0.9378839680E+02   -0.9396795048E+02   -0.7682431191E+02   -0.4097356772E-01    0.3744144385E-01   -0.7746918371E-01
    On-site Multipole corrections :    -0.4820671971E+01   -0.4820696794E+01   -0.4820667384E+01    0.4284301488E-06   -0.6818644228E-06   -0.8015432562E-04
    Strain deriv. of the orbitals :     0.1562402787E+03    0.1564555108E+03    0.1279233071E+03    0.4834490346E-01   -0.3599116810E-01    0.7365936714E-01
    vdW correction   :     0.1314009806E+01    0.1339262472E+01    0.8603424439E+00    0.2874256008E-01    0.2935796675E-02   -0.1199444920E-02
  -----------------------------------------------------------------------------------------------------------------------------------------------------------
  Sum of all contributions        :     0.1456240399E-01    0.2326651701E-01   -0.2993101718E-01    0.2449784777E-01    0.1485988560E-01   -0.2695042611E-01

  +-------------------------------------------------------------------+
  |              Analytical stress tensor - Symmetrized               |
  |                  Cartesian components [eV/A**3]                   |
  +-------------------------------------------------------------------+
  |                x                y                z                |
  |                                                                   |
  |  x         0.00019983       0.00033617       0.00020391           |
  |  y         0.00033617       0.00031927      -0.00036983           |
  |  z         0.00020391      -0.00036983      -0.00041073           |
  |                                                                   |
  |  Pressure:      -0.00003613   [eV/A**3]                           |
  |                                                                   |
  +-------------------------------------------------------------------+

 * Warning: Stress tensor is anisotropic. Be aware that pressure is an isotropic quantity.

  Timings for VdW correction (Tkatchenko-Scheffler 2009 or later):
  | CPU time:        8.548 s, Wall clock time:        8.538 s.
  Removing unitary transformations (pure translations, rotations) from forces on atoms.
  Atomic forces before filtering:
  | Net force on center of mass :  -0.111774E-06  0.136419E-05  0.990530E-05 eV/A
  Removing unitary transformations (rotations) from forces on lattice.
  Lattice forces before filtering:
  | Net torque relative to origin:   0.118624E-17 -0.352596E-17 -0.566451E-14 eV
  Atomic forces after filtering:
  | Net force on center of mass :   0.696899E-18 -0.139380E-17  0.000000E+00 eV/A
  Lattice forces after filtering:
  | Net torque relative to origin:   0.118624E-17 -0.352596E-17 -0.566451E-14 eV

  Energy and forces in a compact form:
  | Total energy uncorrected      :         -0.555214577346045E+06 eV
  | Total energy corrected        :         -0.555214577346045E+06 eV  <-- do not rely on this value for anything but (periodic) metals
  | Electronic free energy        :         -0.555214577346045E+06 eV
  Total atomic forces (unitary forces cleaned) [eV/Ang]:
  |   1         -0.257334110277166E-03          0.119724495982326E-03         -0.307297066937900E-02
  |   2          0.503679446153267E-02         -0.881047304510403E-02          0.435326556875206E-03
  |   3         -0.477946035125550E-02          0.869074854912170E-02          0.263764411250380E-02

  ------------------------------------ 
  Start decomposition of the XC Energy 
  ------------------------------------ 
  X and C from original XC functional choice 
  Hartree-Fock Energy :          0.000000000 Ha              0.000000000 eV
  X Energy            :       -480.538151192 Ha         -13076.108398994 eV
  C Energy            :         -7.682744300 Ha           -209.058109172 eV
  Total XC Energy     :       -488.220895492 Ha         -13285.166508166 eV
  ------------------------------------ 
  LDA X and C from self-consistent density 
  X Energy LDA        :       -458.823810507 Ha         -12485.231125461 eV
  C Energy LDA        :        -13.575743993 Ha           -369.414789661 eV
  ------------------------------------ 
  End decomposition of the XC Energy 
  ------------------------------------ 

------------------------------------------------------------
  Relaxation / MD: End force evaluation.       :  max(cpu_time)    wall_clock(cpu1)
  | Time for this force evaluation             :      105.592 s         105.993 s

------------------------------------------------------------
  Geometry optimization: Attempting to predict improved coordinates.

  +-------------------------------------------------------------------+
  | Generalized derivatives on lattice vectors [eV/A]                 |
  +-------------------------------------------------------------------+
  |lattice_vector       0.00775816       0.01025118      -0.00018917  |
  |lattice_vector       0.00764491       0.00726065      -0.00841027  |
  |lattice_vector       0.00241781      -0.00438503      -0.00486999  |
  +-------------------------------------------------------------------+
  | Forces on lattice vectors cleaned from atomic contributions [eV/A]|
  +-------------------------------------------------------------------+
  |lattice_vector      -0.00448649      -0.01608418      -0.00054479  |
  |lattice_vector      -0.01092118      -0.00141945       0.00914527  |
  |lattice_vector       0.00013867      -0.00017286       0.00429654  |
  +-------------------------------------------------------------------+
  | Projected forces for shape relaxation  [eV/A]                     |
  +-------------------------------------------------------------------+
  |lattice_vector      -0.00448649       0.00000000       0.00000000  |
  |lattice_vector      -0.00211565       0.00366442      -0.00000000  |
  |lattice_vector      -0.00000000       0.00000000       0.00429654  |
  +-------------------------------------------------------------------+
  Removing unitary transformations (pure translations, rotations) from forces on atoms.
  Atomic forces before filtering:
  | Net force on center of mass :   0.696899E-18 -0.139380E-17  0.000000E+00 eV/A
  Removing unitary transformations (rotations) from forces on lattice.
  Lattice forces before filtering:
  | Net torque relative to origin:   0.000000E+00 -0.409431E-34  0.227280E-50 eV
  Atomic forces after filtering:
  | Net force on center of mass :   0.000000E+00  0.000000E+00  0.000000E+00 eV/A
  Lattice forces after filtering:
  | Net torque relative to origin:   0.000000E+00 -0.409431E-34  0.227280E-50 eV
  || Forces on lattice vectors || =   0.448649E-02 eV/A.
  Net remaining forces (excluding translations, rotations) in present geometry:
  Maximum force component is  0.881047E-02 eV/A.
  Present geometry is converged.

------------------------------------------------------------
  Final atomic structure:
                         x [A]             y [A]             z [A]
  lattice_vector         3.70013613       -0.00000000       -0.00000000
  lattice_vector        -1.85009997        3.20446714       -0.00000000
  lattice_vector        -0.00000000        0.00000000        6.14601397

            atom         0.00006261       -0.00003027        0.00013625  Hf
            atom         1.84939609        1.06953586        4.54532526  Se
            atom         0.00057747        2.13496154        1.60055246  Se

  Fractional coordinates:
                         L1                L2                L3
       atom_frac         0.00001220       -0.00000945        0.00002217  Hf
       atom_frac         0.66670328        0.33376403        0.73955661  Se
       atom_frac         0.33328452        0.66624542        0.26042122  Se
------------------------------------------------------------

------------------------------------------------------------------------------
  Final output of selected total energy values:

  The following output summarizes some interesting total energy values
  at the end of a run (AFTER all relaxation, molecular dynamics, etc.).

  | Total energy of the DFT / Hartree-Fock s.c.f. calculation      :        -555214.577346045 eV
  | Final zero-broadening corrected energy (caution - metals only) :        -555214.577346045 eV
  | For reference only, the value of 1 Hartree used in FHI-aims is :             27.211384500 eV

  Before relying on these values, please be sure to understand exactly which
  total energy value is referred to by a given number. Different objects may
  all carry the same name 'total energy'. Definitions:

  Total energy of the DFT / Hartree-Fock s.c.f. calculation:
  | Note that this energy does not include ANY quantities calculated after the
  | s.c.f. cycle, in particular not ANY RPA, MP2, etc. many-body perturbation terms.

  Final zero-broadening corrected energy:
  | For metallic systems only, a broadening of the occupation numbers at the Fermi
  | level can be extrapolated back to zero broadening by an electron-gas inspired
  | formula. For all systems that are not real metals, this value can be
  | meaningless and should be avoided.

------------------------------------------------------------------------------
  Methods described in the following list of references were used in this FHI-aims run.
  If you publish the results, please make sure to cite these reference if they apply.
  FHI-aims is an academic code, and for our developers (often, Ph.D. students
  and postdocs), scientific credit in the community is essential.
  Thank you for helping us!

  For any use of FHI-aims, please cite:

    Volker Blum, Ralf Gehrke, Felix Hanke, Paula Havu, Ville Havu,
    Xinguo Ren, Karsten Reuter, and Matthias Scheffler
    'Ab initio molecular simulations with numeric atom-centered orbitals'
    Computer Physics Communications 180, 2175-2196 (2009)
    http://dx.doi.org/10.1016/j.cpc.2009.06.022


  For the analytical stress tensor used in your run, please cite:

    Franz Knuth, Christian Carbogno, Viktor Atalla, Volker Blum, Matthias Scheffler
    'All-electron formalism for total energy strain derivatives and
    stress tensor components for numeric atom-centered orbitals'
    Computer Physics Communications 190, 33-50 (2015).
    http://dx.doi.org/10.1016/j.cpc.2015.01.003


  The scalable eigensolver library ELPA was used in your run.
  ELPA is essential especially for large systems on hundreds or thousands of CPUs.
  For ELPA, please cite:

    Andreas Marek, Volker Blum, Rainer Johanni, Ville Havu, Bruno Lang,
    Thomas Auckenthaler, Alexander Heinecke, Hans-Joachim Bungartz, and Hermann Lederer,
    'The ELPA Library - Scalable Parallel Eigenvalue Solutions
    for Electronic Structure Theory and Computational Science'
    The Journal of Physics: Condensed Matter 26, 213201 (2014).
    http://dx.doi.org/10.1088/0953-8984/26/21/213201


  The ELSI infrastructure was used in your run to solve the Kohn-Sham electronic structure.
  Please check out http://elsi-interchange.org to learn more.
  If scalability is important for your project, please acknowledge ELSI by citing:

    V. W-z. Yu, F. Corsetti, A. Garcia, W. P. Huhn, M. Jacquelin, W. Jia,
    B. Lange, L. Lin, J. Lu, W. Mi, A. Seifitokaldani, A. Vazquez-Mayagoitia,
    C. Yang, H. Yang, and V. Blum
    'ELSI: A unified software interface for Kohn-Sham electronic structure solvers'
    Computer Physics Communications 222, 267-285 (2018).
    http://dx.doi.org/10.1016/j.cpc.2017.09.007


  For the real-space grid partitioning and parallelization used in this calculation, please cite:

    Ville Havu, Volker Blum, Paula Havu, and Matthias Scheffler,
    'Efficient O(N) integration for all-electron electronic structure calculation'
    'using numerically tabulated basis functions'
    Journal of Computational Physics 228, 8367-8379 (2009).
    http://dx.doi.org/10.1016/j.jcp.2009.08.008

  Of course, there are many other important community references, e.g., those cited in the
  above references. Our list is limited to references that describe implementations in the
  FHI-aims code. The reason is purely practical (length of this list) - please credit others as well.

------------------------------------------------------------
          Leaving FHI-aims.
          Date     :  20191127, Time     :  212248.190

          Computational steps:
          | Number of self-consistency cycles          :          221
          | Number of SCF (re)initializations          :           17
          | Number of relaxation steps                 :           16

          Detailed time accounting                     :  max(cpu_time)    wall_clock(cpu1)
          | Total time                                 :     1716.300 s        1715.067 s
          | Preparation time                           :        0.664 s           0.665 s
          | Boundary condition initalization           :        8.096 s           8.064 s
          | Grid partitioning                          :        2.768 s           2.745 s
          | Preloading free-atom quantities on grid    :        1.004 s           0.988 s
          | Free-atom superposition energy             :        0.156 s           0.138 s
          | Total time for integrations                :      209.284 s         208.218 s
          | Total time for solution of K.-S. equations :      329.336 s         329.844 s
          | Total time for EV reorthonormalization     :        4.296 s           4.180 s
          | Total time for density & force components  :      960.828 s         959.692 s
          | Total time for mixing & preconditioning    :       11.700 s          11.394 s
          | Total time for Hartree multipole update    :        2.748 s           2.403 s
          | Total time for Hartree multipole sum       :       42.032 s          41.567 s
          | Total time for total energy evaluation     :        1.808 s           1.626 s
          | Total time for scaled ZORA corrections     :        0.000 s           0.000 s
          | Total time for vdW correction              :      140.956 s         140.814 s

          Partial memory accounting:
          | Residual value for overall tracked memory usage across tasks :           0.000 MB (should be 0.000 MB)
          | Peak values for overall tracked memory usage (after allocating wave_pulay):
          |   Minimum:      118.385 MB (on task 15)
          |   Maximum:      128.682 MB (on task 56)
          |   Average:      122.384 MB
          | Largest tracked array allocation (density_matrix_con):
          |   Minimum:       32.353 MB (on task 15)
          |   Maximum:       39.534 MB (on task 56)
          |   Average:       35.258 MB
          Note:  These values currently only include a subset of arrays which are explicitly tracked.
          The "true" memory usage will be greater.

          Have a nice day.
------------------------------------------------------------
