  MPI-parallelism will be employed.
------------------------------------------------------------
          Invoking FHI-aims ...
          Version 171221_1
          Compiled on 2018/11/06 at 11:18:49 on host headnode.

          When using FHI-aims, please cite the following reference:

          Volker Blum, Ralf Gehrke, Felix Hanke, Paula Havu,
          Ville Havu, Xinguo Ren, Karsten Reuter, and Matthias Scheffler,
          'Ab Initio Molecular Simulations with Numeric Atom-Centered Orbitals',
          Computer Physics Communications 180, 2175-2196 (2009)

          For any questions about FHI-aims, please visit the aimsclub website
          with its forums and wiki. Contributions to both the forums and the
          wiki are warmly encouraged - they are for you, and everyone is welcome there.

------------------------------------------------------------



  Date     :  20191130, Time     :  160308.335
  Time zero on CPU 1             :   0.468000000000000E+00  s.
  Internal wall clock time zero  :           344361788.335  s.

  FHI-aims created a unique identifier for this run for later identification
  aims_uuid : 491A65BD-38E0-4912-ACC4-5F7C76C676CB

  Using       80 parallel tasks.
  Task        0 on host t027 reporting.
  Task        1 on host t027 reporting.
  Task        2 on host t027 reporting.
  Task        3 on host t027 reporting.
  Task        4 on host t027 reporting.
  Task        5 on host t027 reporting.
  Task        6 on host t027 reporting.
  Task        7 on host t027 reporting.
  Task        8 on host t027 reporting.
  Task        9 on host t027 reporting.
  Task       10 on host t027 reporting.
  Task       11 on host t027 reporting.
  Task       12 on host t027 reporting.
  Task       13 on host t027 reporting.
  Task       14 on host t027 reporting.
  Task       15 on host t027 reporting.
  Task       16 on host t027 reporting.
  Task       17 on host t027 reporting.
  Task       18 on host t027 reporting.
  Task       19 on host t027 reporting.
  Task       20 on host t026 reporting.
  Task       21 on host t026 reporting.
  Task       22 on host t026 reporting.
  Task       23 on host t026 reporting.
  Task       24 on host t026 reporting.
  Task       25 on host t026 reporting.
  Task       26 on host t026 reporting.
  Task       27 on host t026 reporting.
  Task       28 on host t026 reporting.
  Task       29 on host t026 reporting.
  Task       30 on host t026 reporting.
  Task       31 on host t026 reporting.
  Task       32 on host t026 reporting.
  Task       33 on host t026 reporting.
  Task       34 on host t026 reporting.
  Task       35 on host t026 reporting.
  Task       36 on host t026 reporting.
  Task       37 on host t026 reporting.
  Task       38 on host t026 reporting.
  Task       39 on host t026 reporting.
  Task       40 on host t025 reporting.
  Task       41 on host t025 reporting.
  Task       42 on host t025 reporting.
  Task       43 on host t025 reporting.
  Task       44 on host t025 reporting.
  Task       45 on host t025 reporting.
  Task       46 on host t025 reporting.
  Task       47 on host t025 reporting.
  Task       48 on host t025 reporting.
  Task       49 on host t025 reporting.
  Task       50 on host t025 reporting.
  Task       51 on host t025 reporting.
  Task       52 on host t025 reporting.
  Task       53 on host t025 reporting.
  Task       54 on host t025 reporting.
  Task       55 on host t025 reporting.
  Task       56 on host t025 reporting.
  Task       57 on host t025 reporting.
  Task       58 on host t025 reporting.
  Task       59 on host t025 reporting.
  Task       60 on host t024 reporting.
  Task       61 on host t024 reporting.
  Task       62 on host t024 reporting.
  Task       63 on host t024 reporting.
  Task       64 on host t024 reporting.
  Task       65 on host t024 reporting.
  Task       66 on host t024 reporting.
  Task       67 on host t024 reporting.
  Task       68 on host t024 reporting.
  Task       69 on host t024 reporting.
  Task       70 on host t024 reporting.
  Task       71 on host t024 reporting.
  Task       72 on host t024 reporting.
  Task       73 on host t024 reporting.
  Task       74 on host t024 reporting.
  Task       75 on host t024 reporting.
  Task       76 on host t024 reporting.
  Task       77 on host t024 reporting.
  Task       78 on host t024 reporting.
  Task       79 on host t024 reporting.

  Performing system and environment tests:
  | Environment variable OMP_NUM_THREADS correctly set to 1.
  | Stacksize not measured: no C compiler
  | Checking for scalapack...
  | Testing pdtran()...
  | All pdtran() tests passed.

  Obtaining array dimensions for all initial allocations:
  
  -----------------------------------------------------------------------
  Parsing control.in (first pass over file, find array dimensions only).
  The contents of control.in will be repeated verbatim below
  unless switched off by setting 'verbatim_writeout .false.' .
  in the first line of control.in .
  -----------------------------------------------------------------------
  
  #===============================================================================
  # FHI-aims file: ./control.in
  # Created using the Atomic Simulation Environment (ASE)
  # Wed Nov 27 20:14:30 2019
  #
  # List of parameters used to initialize the calculator:
  #     adjust_scf : once 2
  #     xc : pbe
  #     species_dir : /chemsoft/FHI-aims/stable/species_defaults/tight
  #     k_grid : [18, 18, 18]
  #     relativistic : ('atomic_zora', 'scalar')
  #     spin : none
  #===============================================================================
  charge_mix_param 0.02
  ### geometry optimisation section
  relax_geometry    bfgs    1E-2
  relax_unit_cell       fixed_angles
  xc                                 pbe
  many_body_dispersion
  k_grid                             18 18 18
  relativistic                       atomic_zora scalar
  spin                               none
  init_hess diag 0.97
  #===============================================================================
  
  ################################################################################
  #
  #  FHI-aims code project
  # Volker Blum, Fritz Haber Institute Berlin, 2009
  #
  #  Suggested "tight" defaults for Hf atom (to be pasted into control.in file)
  #
  ################################################################################
    species          Hf
  #     global species definitions
      nucleus        72
      mass           178.49
  #
      l_hartree      6
  #
      cut_pot        4.0  2.0  1.0
      basis_dep_cutoff    1e-4
  #
      radial_base    71  7.0
      radial_multiplier  2
      angular_grids specified
        division   0.3723   50
        division   0.7995  110
        division   1.2133  194
        division   1.4586  302
        division   1.6594  434
  #      division   1.9508  590
  #      division   2.1708  770
  #      division   2.4268  974
  #      division   3.3577 1202
  #      outer_grid  974
        outer_grid  434
  ################################################################################
  #
  #  Definition of "minimal" basis
  #
  ################################################################################
  #     valence basis states
      valence      6  s   2.
      valence      5  p   6.
      valence      5  d   2.
      valence      4  f  14.
  #     ion occupancy
      ion_occ      6  s   1.
      ion_occ      5  p   6.
      ion_occ      5  d   1.
      ion_occ      4  f  14.
  ################################################################################
  #
  #  Suggested additional basis functions. For production calculations,
  #  uncomment them one after another (the most important basis functions are
  #  listed first).
  #
  #  Constructed for dimers: 1.975, 2.49, 3.25, 4.50 AA
  #
  ################################################################################
  #
  #  "First tier" - improvements: -322.32 meV to -24.16 meV
       hydro 4 f 6
       hydro 3 d 6
       ionic 6 p auto
       hydro 5 g 10.8
       hydro 4 s 4.7
  #  "Second tier" - improvements: -29.31 meV to -1.14 meV
       hydro 5 f 9.6
       ionic 5 d auto
       hydro 6 h 15.2
       hydro 3 p 2.3
       hydro 4 d 6.6
       hydro 3 s 2.1
  #  "Third tier" - max. impr. -1.11 meV, min. impr. - meV
  #     hydro 5 f 6.6
  #     hydro 5 g 11.2
  #     hydro 6 h 17.6
  #     hydro 3 p 3
  #     hydro 5 g 38.8
  #     hydro 4 d 4.9
  #     hydro 1 s 0.5
  #  "Fourth tier" - max. impr. -0.31 meV, min. impr. -0.11 meV
  #     hydro 5 p 12
  #     hydro 5 f 14
  #     hydro 5 f 20.8
  #     hydro 4 s 12.4
  #     hydro 5 d 19.2
  #     hydro 6 h 22
  #  Further functions: -0.14 meV and below.
  #     hydro 5 p 8.6
  #     hydro 4 s 6
  #     hydro 6 d 9.8
  #     hydro 5 f 19.6
  ################################################################################
  #
  #  FHI-aims code project
  # Volker Blum, Fritz Haber Institute Berlin, 2009
  #
  #  Suggested "tight" defaults for Te atom (to be pasted into control.in file)
  #
  ################################################################################
    species        Te
  #     global species definitions
      nucleus             52
      mass                127.60
  #
      l_hartree           6
  #
      cut_pot             4.0  2.0  1.0
      basis_dep_cutoff    1e-4
  #
      radial_base         64 7.0
      radial_multiplier   2
      angular_grids specified
        division   0.1259  110
        division   0.8959  194
        division   0.9864  302
        division   1.1196  434
  #      division   1.1922  590
  #      division   1.3098  770
  #      division   2.9404  974
  #      outer_grid  974
        outer_grid  434
  ################################################################################
  #
  #  Definition of "minimal" basis
  #
  ################################################################################
  #     valence basis states
      valence      5  s   2.
      valence      5  p   4.
      valence      4  d  10.
  #     ion occupancy
      ion_occ     5  s   1.
      ion_occ     5  p   3.
      ion_occ     4  d  10.
  ################################################################################
  #
  #  Suggested additional basis functions. For production calculations,
  #  uncomment them one after another (the most important basis functions are
  #  listed first).
  #
  #  Constructed for dimers: 2.15 A, 2.55 A, 3.10 A, 3.60 A, 4.50 A
  #
  ################################################################################
  #  "First tier" - max. impr. -217.34  meV, min. impr. -22.97 meV
       hydro 3 d 3.7
       hydro 4 f 6
       hydro 3 p 2.7
       ionic 5 s auto
  #  "Second tier" - max. impr. -17.80 meV, min. impr. -0.57 meV
       hydro 5 g 9
       hydro 4 f 16.4
       hydro 6 h 12
       hydro 4 p 6.4
       hydro 5 f 32.4
       hydro 4 d 5
       hydro 3 s 2.8
  #  "Third tier" - max. impr. -0.51 meV, min. impr. -0.06 meV
  #     hydro 5 f 8.4
  #     hydro 5 g 11.6
  #     hydro 6 h 15.6
  #     hydro 2 p 1.7
  #     hydro 4 d 9.6
  #     hydro 1 s 6.4
  #  Further functions that fell out of the optimization: -0.17 meV and below
  #     hydro 4 f 33.6
  #     hydro 5 d 6.8
  #     hydro 5 f 16
  
  -----------------------------------------------------------------------
  Completed first pass over input file control.in .
  -----------------------------------------------------------------------
  
  
  -----------------------------------------------------------------------
  Parsing geometry.in (first pass over file, find array dimensions only).
  The contents of geometry.in will be repeated verbatim below
  unless switched off by setting 'verbatim_writeout .false.' .
  in the first line of geometry.in .
  -----------------------------------------------------------------------
  
  #
  # This is the geometry file that corresponds to the current relaxation step.
  # If you do not want this file to be written, set the "write_restart_geometry" flag to .false.
  #  aims_uuid : 1DA3085E-4511-4FBA-ADBB-EEB59FC30F72
  #
  lattice_vector      3.85991986     -0.00000000     -0.00000000
  lattice_vector     -1.92969264      3.34232572     -0.00000000
  lattice_vector      0.00000000      0.00000000      6.65012187
  atom      -0.00000946      0.00000458      0.00042546 Hf
  atom      -0.00021694      2.22803410      4.83544657 Te
  atom       1.93045360      1.11428703      1.81424984 Te
  #
  # What follows is the current estimated Hessian matrix constructed by the BFGS algorithm.
  # This is NOT the true Hessian matrix of the system.
  # If you do not want this information here, switch it off using the "hessian_to_restart_geometry" keyword.
  #
  trust_radius             0.2000000030
  hessian_block                1       1           3.816229          -0.775688           0.147942          -0.775688           2.92558
  hessian_block                1       2          -1.021039           0.453255           0.098101           0.477886          -0.51493
  hessian_block                1       3          -0.795191           0.322435          -0.246043           0.297802          -0.41065
  hessian_block                2       2           3.524809          -0.754746           0.189403          -0.754746           2.68186
  hessian_block                2       3          -0.503770           0.276860           0.059873           0.301492          -0.16693
  hessian_block                3       3           3.298961          -0.599294           0.186170          -0.599294           2.57758
  hessian_block_lv             1       1          17.146255           0.000000           0.000000           0.000000          25.00000
  hessian_block_lv             1       2           4.421743          -0.000000          -0.000000          -7.658685           0.00000
  hessian_block_lv             1       3           0.000000          -0.000000          -0.000000           0.000000          -0.00000
  hessian_block_lv             2       2          22.725520           3.939514           0.000000           3.939514          18.17656
  hessian_block_lv             2       3          -0.000000           0.000000           0.000000          -0.000000           0.00000
  hessian_block_lv             3       3          25.000000          -0.000000          -0.000000          -0.000000          25.00000
  hessian_block_lv_atom        1       1          -0.127512          -0.000000          -0.000000           0.073406           0.00000
  hessian_block_lv_atom        1       2          -1.277934           0.000000           0.000000           0.704986          -0.00000
  hessian_block_lv_atom        1       3           1.405446           0.000000           0.000000          -0.778392          -0.00000
  hessian_block_lv_atom        2       1          -0.309819           0.536623           0.000000           0.179434          -0.31078
  hessian_block_lv_atom        2       2           0.768545          -1.331157          -0.000000          -0.440751           0.76340
  hessian_block_lv_atom        2       3          -0.458725           0.794534          -0.000000           0.261317          -0.45261
  hessian_block_lv_atom        3       1          -0.000000          -0.000000           0.181864           0.000000           0.00000
  hessian_block_lv_atom        3       2           0.000000           0.000000          -0.071292          -0.000000          -0.00000
  hessian_block_lv_atom        3       3           0.000000           0.000000          -0.110572          -0.000000          -0.00000
  
  -----------------------------------------------------------------------
  Completed first pass over input file geometry.in .
  -----------------------------------------------------------------------
  

  Basic array size parameters:
  | Number of species                 :        2
  | Number of atoms                   :        3
  | Number of lattice vectors         :        3
  | Max. basis fn. angular momentum   :        5
  | Max. atomic/ionic basis occupied n:        6
  | Max. number of basis fn. types    :        3
  | Max. radial fns per species/type  :       14
  | Max. logarithmic grid size        :     1480
  | Max. radial integration grid size :      143
  | Max. angular integration grid size:      434
  | Max. angular grid division number :        8
  | Radial grid for Hartree potential :     1480
  | Number of spin channels           :        1

------------------------------------------------------------
          Reading file control.in.
------------------------------------------------------------
  Charge density mixing - mixing parameter:     0.0200
  Geometry relaxation: Modified BFGS - TRM (trust radius method, i.e., trusted quadratic extrapolation).
  Convergence accuracy for geometry relaxation: Maximum force <   0.100000E-01 eV/A.
  XC: Using PBE gradient-corrected functionals.
  Using the default MBD implementation with analytical forces
  Found k-point grid:        18        18        18
  Scalar relativistic treatment of kinetic energy: on-site free-atom approximation to ZORA.
  Spin treatment: No spin polarisation.
  Initial Hessian is   0.970000E+00 eV/A^2 times unity.
  *** Specified both init_hess in control.in and hessian_blocks in geometry.in.
  *** Using the latter for Hessian initialization.
 
  Reading configuration options for species Hf                  .
  | Found nuclear charge :  72.0000
  | Found atomic mass :    178.490000000000      amu
  | Found l_max for Hartree potential  :   6
  | Found cutoff potl. onset [A], width [A], scale factor :    4.00000    2.00000    1.00000
  | Threshold for basis-dependent cutoff potential is   0.100000E-03
  | Found data for basic radial integration grid :    71 points, outermost radius =    7.000 A
  | Found multiplier for basic radial grid :   2
  | Found angular grid specification: user-specified.
  | Specified grid contains     6 separate shells.
  | Check grid settings after all constraints further below.
  | Found free-atom valence shell :  6 s   2.000
  | Found free-atom valence shell :  5 p   6.000
  | Found free-atom valence shell :  5 d   2.000
  | Found free-atom valence shell :  4 f  14.000
  | Found free-ion valence shell :  6 s   1.000
  | Found free-ion valence shell :  5 p   6.000
  | Found free-ion valence shell :  5 d   1.000
  | Found free-ion valence shell :  4 f  14.000
  | Found hydrogenic basis function :  4 f   6.000
  | Found hydrogenic basis function :  3 d   6.000
  | Found ionic basis function :  6 p , default cutoff radius.
  | Found hydrogenic basis function :  5 g  10.800
  | Found hydrogenic basis function :  4 s   4.700
  | Found hydrogenic basis function :  5 f   9.600
  | Found ionic basis function :  5 d , default cutoff radius.
  | Found hydrogenic basis function :  6 h  15.200
  | Found hydrogenic basis function :  3 p   2.300
  | Found hydrogenic basis function :  4 d   6.600
  | Found hydrogenic basis function :  3 s   2.100
  Species Hf                  : Missing cutoff potential type.
  Defaulting to exp(1/x)/(1-x)^2 type cutoff potential.
  Species Hf: No 'logarithmic' tag. Using default grid for free atom:
  | Default logarithmic grid data [bohr] : 0.1000E-03 0.1000E+03 0.1012E+01
  | Will include ionic basis functions of  2.0-fold positive Hf                   ion.
  Species Hf: On-site basis accuracy parameter (for Gram-Schmidt orthonormalisation) not specified.
  Using default value basis_acc =  0.1000000E-03.
  Species Hf                  : Using default innermost maximum threshold i_radial=  2 for radial functions.
  Species Hf                  : Default cutoff onset for free atom density etc. : 0.40000000E+01 AA.
  Species Hf                  : Basic radial grid will be enhanced according to radial_multiplier =   2, to contain   143 grid points.
 
  Reading configuration options for species Te                  .
  | Found nuclear charge :  52.0000
  | Found atomic mass :    127.600000000000      amu
  | Found l_max for Hartree potential  :   6
  | Found cutoff potl. onset [A], width [A], scale factor :    4.00000    2.00000    1.00000
  | Threshold for basis-dependent cutoff potential is   0.100000E-03
  | Found data for basic radial integration grid :    64 points, outermost radius =    7.000 A
  | Found multiplier for basic radial grid :   2
  | Found angular grid specification: user-specified.
  | Specified grid contains     5 separate shells.
  | Check grid settings after all constraints further below.
  | Found free-atom valence shell :  5 s   2.000
  | Found free-atom valence shell :  5 p   4.000
  | Found free-atom valence shell :  4 d  10.000
  | Found free-ion valence shell :  5 s   1.000
  | Found free-ion valence shell :  5 p   3.000
  | Found free-ion valence shell :  4 d  10.000
  | Found hydrogenic basis function :  3 d   3.700
  | Found hydrogenic basis function :  4 f   6.000
  | Found hydrogenic basis function :  3 p   2.700
  | Found ionic basis function :  5 s , default cutoff radius.
  | Found hydrogenic basis function :  5 g   9.000
  | Found hydrogenic basis function :  4 f  16.400
  | Found hydrogenic basis function :  6 h  12.000
  | Found hydrogenic basis function :  4 p   6.400
  | Found hydrogenic basis function :  5 f  32.400
  | Found hydrogenic basis function :  4 d   5.000
  | Found hydrogenic basis function :  3 s   2.800
  Species Te                  : Missing cutoff potential type.
  Defaulting to exp(1/x)/(1-x)^2 type cutoff potential.
  Species Te: No 'logarithmic' tag. Using default grid for free atom:
  | Default logarithmic grid data [bohr] : 0.1000E-03 0.1000E+03 0.1012E+01
  | Will include ionic basis functions of  2.0-fold positive Te                   ion.
  Species Te: On-site basis accuracy parameter (for Gram-Schmidt orthonormalisation) not specified.
  Using default value basis_acc =  0.1000000E-03.
  Species Te                  : Using default innermost maximum threshold i_radial=  2 for radial functions.
  Species Te                  : Default cutoff onset for free atom density etc. : 0.40000000E+01 AA.
  Species Te                  : Basic radial grid will be enhanced according to radial_multiplier =   2, to contain   129 grid points.
  | MBD: Using the same k-grid sampling as DFT
 
  Finished reading input file 'control.in'. Consistency checks are next.
 
  MPI_IN_PLACE appears to work with this MPI implementation.
  | Keeping use_mpi_in_place .true. (see manual).
  Target number of points in a grid batch is not set. Defaulting to  100
  Method for grid partitioning is not set. Defaulting to parallel hash+maxmin partitioning.
  Batch size limit is not set. Defaulting to    200
  By default, will store active basis functions for each batch.
  If in need of memory, prune_basis_once .false. can be used to disable this option.
  communication_type for Hartree potential was not specified.
  Defaulting to calc_hartree .
  Defaulting to Pulay charge density mixer.
  Pulay mixer: Number of relevant iterations not set.
  Defaulting to    8 iterations.
  Pulay mixer: Number of initial linear mixing iterations not set.
  Defaulting to    0 iterations.
  Work space size for distributed Hartree potential not set.
  Defaulting to   0.200000E+03 MB.
  Algorithm-dependent basis array size parameters:
  | n_max_pulay                         :        8
 * Notice: The s.c.f. convergence criterion sc_accuracy_rho was not provided.
 * We used to stop in this case, and ask the user to provide reasonable
 * scf convergence criteria. However, this led some users to employ criteria
 * that led to extremely long run times, e.g., for simple relaxation.
 * We now preset a default value for sc_accuracy_rho if it is not set.
 * You may still wish to check if this setting is too tight or too loose for your needs.
 * Based on n_atoms, FHI-aims chose sc_accuracy_rho =  0.100000E-05 .
  Maximum number of self-consistency iterations not provided.
  Presetting  1000 iterations.
  Presetting      1001 iterations before the initial mixing cycle
  is restarted anyway using the sc_init_iter criterion / keyword.
  Presetting a factor      1.000 between actual scf density residual
  and density convergence criterion sc_accuracy_rho below which sc_init_iter
  takes no effect.
 * No s.c.f. convergence criteria (sc_accuracy_*) were provided in control.in.
 * The run will proceed with a reasonable default guess, but please check whether.
 * the s.c.f. cycles seem to take too much or too little time.
  No maximum number of relaxation steps, defaulting to     1000
  No maximum energy tolerance for TRM/BFGS moves, defaulting to   0.200000E-03
  No harmonic length scale. Defaulting to   0.250000E-01 A.
  No trust radius initializer. Defaulting to   0.200000E+00 A.
  Unit cell relaxation: Restricted relaxation with fixed angles between lattice vectors.
  Unit cell relaxation: Analytical stress will be used.
  Analytical stress will be computed.
  Analytical stress calculation: Only the upper triangle is calculated.
                                 Final output is symmetrized.
  Analytical stress calculation: scf convergence accuracy of stress not set.
                                 Analytical stress self-consistency will not be checked explicitly.
                                 Be sure to set other criteria like sc_accuracy_rho tight enough.
  Force calculation: scf convergence accuracy of forces not set.
  Defaulting to 'sc_accuracy_forces not_checked'.
  Handling of forces: Unphysical translation and rotation will be removed from forces.
  No accuracy limit for integral partition fn. given. Defaulting to  0.1000E-14.
  No threshold value for u(r) in integrations given. Defaulting to  0.1000E-05.
  No occupation type (smearing scheme) given. Defaulting to Gaussian broadening, width =  0.1000E-01 eV.
  The width will be adjusted in iteration number     2 of the first full s.c.f. cycle only.
  S.C.F. convergence parameters will be adjusted in iteration number     2 of the first full s.c.f. cycle only.
  No accuracy for occupation numbers given. Defaulting to  0.1000E-12.
  No threshold value for occupation numbers given. Defaulting to  0.0000E+00.
  No accuracy for fermi level given. Defaulting to  0.1000E-19.
  Maximum # of iterations to find E_F not set. Defaulting to  200.
  Preferred method for the eigenvalue solver ('KS_method') not specified in 'control.in'.
  Defaulting to serial version, 'lapack_fast', since more k-points than CPUs available.
  Will not use alltoall communication since running on < 1024 CPUs.
  Threshold for basis singularities not set.
  Default threshold for basis singularities:  0.1000E-04
  partition_type (choice of integration weights) for integrals was not specified.
  | Using a version of the partition function of Stratmann and coworkers ('stratmann_smoother').
  | At each grid point, the set of atoms used to build the partition table is smoothly restricted to
  | only those atoms whose free-atom density would be non-zero at that grid point.
  Partitioning for Hartree potential was not defined. Using partition_type for integrals.
  | Adjusted default value of keyword multip_moments_threshold to:       0.10000000E-11
  | This value may affect high angular momentum components of the Hartree potential in periodic systems.
  Angular momentum expansion for Kerker preconditioner not set explicitly.
  | Using default value of   0
  No explicit requirement for turning off preconditioner.
  | By default, it will be turned off when the charge convergence reaches
  | sc_accuracy_rho  =   0.100000E-05
  No special mixing parameter while Kerker preconditioner is on.
  Using default: charge_mix_param =     0.0200.
  No q(lm)/r^(l+1) cutoff set for long-range Hartree potential.
  | Using default value of  0.100000E-09 .
  | Verify using the multipole_threshold keyword.
  Defaulting to new monopole extrapolation.
  Density update method: automatic selection selected.
  Using density matrix based charge density update.
  Using density matrix based charge density update.
  Using packed matrix style: index .
  Geometry relaxation: A file "geometry.in.next_step" is written out by default after each step.
  | This file contains the geometry of the current relaxation step as well as
  | the current Hessian matrix needed to restart the relaxation algorithm.
  | If you do not want part or all of this information, use the keywords
  | "write_restart_geometry" or "hessian_to_restart_geometry" to switch the output off.
  Defaulting to use time-reversal symmetry for k-point grid.
------------------------------------------------------------


------------------------------------------------------------
          Reading geometry description geometry.in.
------------------------------------------------------------
 * Large trust radius value found - resetting to the current value of max_atomic_move,      0.20000000 A.
  Input structure read successfully.
  The structure contains        3 atoms,  and a total of        176.000 electrons.

  Input geometry:
  | Unit cell:
  |        3.85991986        0.00000000        0.00000000
  |       -1.92969264        3.34232572        0.00000000
  |        0.00000000        0.00000000        6.65012187
  | Atomic structure:
  |       Atom                x [A]            y [A]            z [A]
  |    1: Species Hf           -0.00000946        0.00000458        0.00042546
  |    2: Species Te           -0.00021694        2.22803410        4.83544657
  |    3: Species Te            1.93045360        1.11428703        1.81424984

  Lattice parameters for 3D lattice (in Angstroms) :     3.859920    3.859385    6.650122
  Angle(s) between unit vectors (in degrees)      :    90.000000   90.000000  120.000000

  |

  | The smallest distance between any two atoms is         2.87300117 AA.
  |
  | The first atom of this pair is atom number                      1 .
  | The second atom of this pair is atom number                     3 .
  | Wigner-Seitz cell of the first atom image           0     1     0 .
  | (The Wigner-Seitz cell of the second atom is 0 0 0  by definition.)

  Quantities derived from the lattice vectors:
  | Reciprocal lattice vector 1:  1.627802  0.939812  0.000000
  | Reciprocal lattice vector 2: -0.000000  1.879884  0.000000
  | Reciprocal lattice vector 3:  0.000000  0.000000  0.944823
  | Unit cell volume                               :   0.857939E+02  A^3

  Range separation radius for Ewald summation (hartree_convergence_parameter):      4.42389684 bohr.

  Fractional coordinates:
                         L1                L2                L3
       atom_frac        -0.00000177        0.00000137        0.00006398  Hf
       atom_frac         0.33320359        0.66661190        0.72712150  Te
       atom_frac         0.66679817        0.33338673        0.27281453  Te

  Number of empty states per atom not set in control.in - providing a guess from actual geometry.
  | Total number of empty states used during s.c.f. cycle:       20
  If you use a very high smearing, use empty_states (per atom!) in control.in to increase this value.

  Structure-dependent array size parameters: 
  | Maximum number of distinct radial functions  :       47
  | Maximum number of basis functions            :      269
  | Number of Kohn-Sham states (occupied + empty):      108
------------------------------------------------------------

------------------------------------------------------------
          Preparing all fixed parts of the calculation.
------------------------------------------------------------
  Determining machine precision:
    2.225073858507201E-308
  Setting up grids for atomic and cluster calculations.

  Creating wave function, potential, and density for free atoms.

  Species: Hf

  List of occupied orbitals and eigenvalues:
    n    l              occ      energy [Ha]    energy [eV]
    1    0           2.0000     -2584.841454    -70337.1147
    2    0           2.0000      -416.409620    -11331.0823
    3    0           2.0000       -93.828152     -2553.1939
    4    0           2.0000       -18.830205      -512.3959
    5    0           2.0000        -2.452388       -66.7329
    6    0           2.0000        -0.182075        -4.9545
    2    1           6.0000      -365.115746     -9935.3049
    3    1           6.0000       -78.772537     -2143.5098
    4    1           6.0000       -13.918099      -378.7307
    5    1           6.0000        -1.297904       -35.3178
    3    2          10.0000       -61.028236     -1660.6628
    4    2          10.0000        -7.585880      -206.4223
    5    2           2.0000        -0.092422        -2.5149
    4    3          14.0000        -0.614647       -16.7254


  Species: Te

  List of occupied orbitals and eigenvalues:
    n    l              occ      energy [Ha]    energy [eV]
    1    0           2.0000     -1205.196269    -32795.0591
    2    0           2.0000      -179.435283     -4882.6825
    3    0           2.0000       -35.515934      -966.4377
    4    0           2.0000        -6.038599      -164.3187
    5    0           2.0000        -0.553449       -15.0601
    2    1           6.0000      -160.997293     -4380.9593
    3    1           6.0000       -29.570439      -804.6526
    4    1           6.0000        -4.201054      -114.3165
    5    1           4.0000        -0.217175        -5.9096
    3    2          10.0000       -20.601415      -560.5930
    4    2          10.0000        -1.529160       -41.6105

  Creating fixed part of basis set: Ionic, confined, hydrogenic.
 
  Hf                   ion:

  List of free ionic orbitals and eigenvalues:
    n    l      energy [Ha]    energy [eV]
    1    0     -2585.552822    -70356.4720
    2    0      -417.082963    -11349.4049
    3    0       -94.492979     -2571.2848
    4    0       -19.494122      -530.4620
    5    0        -3.115173       -84.7682
    6    0        -0.684769       -18.6335
    2    1      -365.788271     -9953.6053
    3    1       -79.437124     -2161.5941
    4    1       -14.582223      -396.8025
    5    1        -1.952578       -53.1323
    3    2       -61.692915     -1678.7496
    4    2        -8.250294      -224.5019
    5    2        -0.680962       -18.5299
    4    3        -1.278337       -34.7853


  List of ionic basis orbitals and eigenvalues:
    n    l      energy [Ha]    energy [eV]    outer radius [A]
    6    1        -0.471793       -12.8381       5.450410
    5    2        -0.680950       -18.5296       5.127232

 
  Hf                   hydrogenic:
 
  List of hydrogenic basis orbitals: 
    n    l      effective z      eigenvalue [eV]  inner max. [A]     outer max. [A]     outer radius [A]   
    4    3         6.000000       -30.6116           1.403147           1.403147           5.384184
    3    2         6.000000       -54.4226           0.789894           0.789894           4.165104
    5    4        10.800000       -63.4785           1.226596           1.226596           4.764611
    4    0         4.700000       -18.5431           0.082292           2.748600           5.517450
    5    3         9.600000       -50.1555           0.673827           1.813833           5.384184
    6    5        15.200000       -87.3182           1.256956           1.256956           4.593035
    3    1         2.300000        -7.5446           0.682115           2.649621           5.517450
    4    2         6.600000       -37.0405           0.547383           1.706283           5.384184
    3    0         2.100000        -5.6806           0.186672           2.994169           5.517450
 
 
  Te                   ion:

  List of free ionic orbitals and eigenvalues:
    n    l      energy [Ha]    energy [eV]
    1    0     -1206.001395    -32816.9677
    2    0      -180.213456     -4903.8576
    3    0       -36.289734      -987.4939
    4    0        -6.806662      -185.2187
    5    0        -1.230780       -33.4912
    2    1      -161.775412     -4402.1329
    3    1       -30.344117      -825.7054
    4    1        -4.968097      -135.1888
    5    1        -0.843350       -22.9487
    3    2       -21.374869      -581.6398
    4    2        -2.290936       -62.3395


  List of ionic basis orbitals and eigenvalues:
    n    l      energy [Ha]    energy [eV]    outer radius [A]
    5    0        -1.230774       -33.4911       4.407087

 
  Te                   hydrogenic:
 
  List of hydrogenic basis orbitals: 
    n    l      effective z      eigenvalue [eV]  inner max. [A]     outer max. [A]     outer radius [A]   
    3    2         3.700000       -20.6934           1.282089           1.282089           5.425112
    4    3         6.000000       -30.6116           1.413813           1.413813           5.359194
    3    1         2.700000       -10.8497           0.586309           2.305482           5.491841
    5    4         9.000000       -44.0820           1.466627           1.466627           5.359194
    4    3        16.400000      -228.7117           0.518841           0.518841           2.803558
    6    5        12.000000       -54.4224           1.578248           1.578248           5.359194
    4    1         6.400000       -34.8270           0.234387           1.942819           5.425112
    5    3        32.400000      -571.3085           0.199946           0.538222           2.249797
    4    2         5.000000       -21.2056           0.721745           2.249797           5.491841
    3    0         2.800000       -11.6572           0.140264           2.450800           5.491841
 

  Adding cutoff potential to free-atom effective potential.
  Creating atomic-like basis functions for current effective potential.

  Species Hf                  :

  List of atomic basis orbitals and eigenvalues:
    n    l      energy [Ha]    energy [eV]    outer radius [A]
    1    0     -2584.841454    -70337.1147       0.135843
    2    0      -416.409620    -11331.0823       0.352500
    3    0       -93.828152     -2553.1939       0.752197
    4    0       -18.830205      -512.3959       1.605110
    5    0        -2.452388       -66.7329       4.165104
    6    0        -0.182075        -4.9545       5.450410
    2    1      -365.115746     -9935.3049       0.370165
    3    1       -78.772537     -2143.5098       0.799610
    4    1       -13.918099      -378.7307       1.813833
    5    1        -1.297904       -35.3178       4.942597
    3    2       -61.028236     -1660.6628       0.860465
    4    2        -7.585880      -206.4223       2.316232
    5    2        -0.092422        -2.5149       5.450410
    4    3        -0.614647       -16.7254       5.003391


  Species Te                  :

  List of atomic basis orbitals and eigenvalues:
    n    l      energy [Ha]    energy [eV]    outer radius [A]
    1    0     -1205.196269    -32795.0591       0.195117
    2    0      -179.435283     -4882.6825       0.531683
    3    0       -35.515934      -966.4377       1.176937
    4    0        -6.038599      -164.3187       2.735843
    5    0        -0.553449       -15.0601       5.294077
    2    1      -160.997293     -4380.9593       0.544843
    3    1       -29.570439      -804.6526       1.266511
    4    1        -4.201054      -114.3165       3.168123
    5    1        -0.217175        -5.9096       5.425112
    3    2       -20.601415      -560.5930       1.431203
    4    2        -1.529160       -41.6105       4.627949

  Assembling full basis from fixed parts.
  | Species Hf :   atomic orbital   1 s accepted.
  | Species Hf :   atomic orbital   2 s accepted.
  | Species Hf :   atomic orbital   3 s accepted.
  | Species Hf :   atomic orbital   4 s accepted.
  | Species Hf :   atomic orbital   5 s accepted.
  | Species Hf :   atomic orbital   6 s accepted.
  | Species Hf :    hydro orbital   4 s accepted.
  | Species Hf :    hydro orbital   3 s accepted.
  | Species Hf :   atomic orbital   2 p accepted.
  | Species Hf :   atomic orbital   3 p accepted.
  | Species Hf :   atomic orbital   4 p accepted.
  | Species Hf :   atomic orbital   5 p accepted.
  | Species Hf :    ionic orbital   6 p accepted.
  | Species Hf :    hydro orbital   3 p accepted.
  | Species Hf :   atomic orbital   3 d accepted.
  | Species Hf :   atomic orbital   4 d accepted.
  | Species Hf :    hydro orbital   3 d accepted.
  | Species Hf :    ionic orbital   5 d accepted.
  | Species Hf :    hydro orbital   4 d accepted.
  | Species Hf :   atomic orbital   5 d accepted.
  | Species Hf :   atomic orbital   4 f accepted.
  | Species Hf :    hydro orbital   4 f accepted.
  | Species Hf :    hydro orbital   5 f accepted.
  | Species Hf :    hydro orbital   5 g accepted.
  | Species Hf :    hydro orbital   6 h accepted.
  | Species Te :   atomic orbital   1 s accepted.
  | Species Te :   atomic orbital   2 s accepted.
  | Species Te :   atomic orbital   3 s accepted.
  | Species Te :   atomic orbital   4 s accepted.
  | Species Te :    ionic orbital   5 s accepted.
  | Species Te :   atomic orbital   5 s accepted.
  | Species Te :    hydro orbital   3 s accepted.
  | Species Te :   atomic orbital   2 p accepted.
  | Species Te :   atomic orbital   3 p accepted.
  | Species Te :   atomic orbital   4 p accepted.
  | Species Te :   atomic orbital   5 p accepted.
  | Species Te :    hydro orbital   4 p accepted.
  | Species Te :    hydro orbital   3 p accepted.
  | Species Te :   atomic orbital   3 d accepted.
  | Species Te :   atomic orbital   4 d accepted.
  | Species Te :    hydro orbital   3 d accepted.
  | Species Te :    hydro orbital   4 d accepted.
  | Species Te :    hydro orbital   5 f accepted.
  | Species Te :    hydro orbital   4 f accepted.
  | Species Te :    hydro orbital   4 f accepted.
  | Species Te :    hydro orbital   5 g accepted.
  | Species Te :    hydro orbital   6 h accepted.
 
  Basis size parameters after reduction:
  | Total number of radial functions:       47
  | Total number of basis functions :      269
 
  Per-task memory consumption for arrays in subroutine allocate_ext:
  |          17.816088MB.
  Testing on-site integration grid accuracy.
  |  Species  Function  <phi|h_atom|phi> (log., in eV)  <phi|h_atom|phi> (rad., in eV)
           1        1             -70337.1146698938             -70337.1000195033
           1        2             -11331.0822838340             -11331.0819974324
           1        3              -2553.1939241433              -2553.1939033442
           1        4               -512.3959483215               -512.3959435004
           1        5                -66.7328606804                -66.7328595152
           1        6                 -4.9609826843                 -4.9609662995
           1        7                  4.4947479361                  4.4949913073
           1        8                 28.7527526448                 28.7552191400
           1        9              -9935.3049395807              -9935.3049326924
           1       10              -2143.5097894823              -2143.5097845624
           1       11               -378.7307348171               -378.7307317592
           1       12                -35.3177612045                -35.3177605023
           1       13                 -0.3051418017                 -0.3051279404
           1       14                  8.1710841034                  8.1714360954
           1       15              -1660.6627840964              -1660.6627822102
           1       16               -206.4223091258               -206.4223074349
           1       17                 -1.1108014108                 -1.1108011651
           1       18                  9.2663821216                  9.2663821089
           1       19                 53.6250270951                 53.6250287567
           1       20                 31.5406305910                 31.5416476097
           1       21                -16.7254068200                -16.7254064907
           1       22                 13.9532729765                 13.9532741914
           1       23                 48.0813797185                 48.0813797916
           1       24                 39.4113660380                 39.4113660061
           1       25                 65.3093031931                 65.3093031256
           2       26             -32795.0590846454             -32795.0556605232
           2       27              -4882.6824813465              -4882.6824159868
           2       28               -966.4377413866               -966.4377361228
           2       29               -164.3186507888               -164.3186490966
           2       30                -14.8855865446                -14.8855862180
           2       31                  5.2437428292                  5.2437525172
           2       32                 11.1990165547                 11.1992684860
           2       33              -4380.9592556630              -4380.9592506320
           2       34               -804.6525815679               -804.6525796130
           2       35               -114.3164854912               -114.3164843738
           2       36                 -5.9109395843                 -5.9109349312
           2       37                 11.2960142424                 11.2960193078
           2       38                 11.0222944053                 11.0227420003
           2       39               -560.5930245701               -560.5930241259
           2       40                -41.6105488448                -41.6105483746
           2       41                  5.2198476695                  5.2198521163
           2       42                 17.1207565320                 17.1208262527
           2       43                200.5097003826                200.5097004391
           2       44                168.6935008916                168.6935018573
           2       45                 18.2186318522                 18.2186347166
           2       46                 29.0453900150                 29.0453912086
           2       47                 42.4071998935                 42.4072011778

  Preparing densities etc. for the partition functions (integrals / Hartree potential).

  Preparations completed.
  max(cpu_time)          :      0.732 s.
  Wall clock time (cpu1) :      0.733 s.
------------------------------------------------------------

------------------------------------------------------------
          Begin self-consistency loop: Initialization.

          Date     :  20191130, Time     :  160309.150
------------------------------------------------------------

  Initializing index lists of integration centers etc. from given atomic structure:
  Mapping all atomic coordinates to central unit cell.

  Initializing the k-points
          Using symmetry for reducing the k-points
  | k-points reduced from:     5832 to     2920
  | Number of k-points                             :      2920
  The eigenvectors in the calculations are COMPLEX.
  | K-points in task   0:        36
  | K-points in task   1:        37
  | K-points in task   2:        37
  | K-points in task   3:        37
  | K-points in task   4:        37
  | K-points in task   5:        37
  | K-points in task   6:        37
  | K-points in task   7:        37
  | K-points in task   8:        37
  | K-points in task   9:        37
  | K-points in task  10:        37
  | K-points in task  11:        37
  | K-points in task  12:        37
  | K-points in task  13:        37
  | K-points in task  14:        37
  | K-points in task  15:        37
  | K-points in task  16:        37
  | K-points in task  17:        37
  | K-points in task  18:        37
  | K-points in task  19:        37
  | K-points in task  20:        37
  | K-points in task  21:        37
  | K-points in task  22:        37
  | K-points in task  23:        37
  | K-points in task  24:        37
  | K-points in task  25:        37
  | K-points in task  26:        37
  | K-points in task  27:        37
  | K-points in task  28:        37
  | K-points in task  29:        37
  | K-points in task  30:        37
  | K-points in task  31:        37
  | K-points in task  32:        37
  | K-points in task  33:        37
  | K-points in task  34:        37
  | K-points in task  35:        37
  | K-points in task  36:        37
  | K-points in task  37:        37
  | K-points in task  38:        37
  | K-points in task  39:        37
  | K-points in task  40:        37
  | K-points in task  41:        36
  | K-points in task  42:        36
  | K-points in task  43:        36
  | K-points in task  44:        36
  | K-points in task  45:        36
  | K-points in task  46:        36
  | K-points in task  47:        36
  | K-points in task  48:        36
  | K-points in task  49:        36
  | K-points in task  50:        36
  | K-points in task  51:        36
  | K-points in task  52:        36
  | K-points in task  53:        36
  | K-points in task  54:        36
  | K-points in task  55:        36
  | K-points in task  56:        36
  | K-points in task  57:        36
  | K-points in task  58:        36
  | K-points in task  59:        36
  | K-points in task  60:        36
  | K-points in task  61:        36
  | K-points in task  62:        36
  | K-points in task  63:        36
  | K-points in task  64:        36
  | K-points in task  65:        36
  | K-points in task  66:        36
  | K-points in task  67:        36
  | K-points in task  68:        36
  | K-points in task  69:        36
  | K-points in task  70:        36
  | K-points in task  71:        36
  | K-points in task  72:        36
  | K-points in task  73:        36
  | K-points in task  74:        36
  | K-points in task  75:        36
  | K-points in task  76:        36
  | K-points in task  77:        36
  | K-points in task  78:        36
  | K-points in task  79:        36
  | Number of basis functions in the Hamiltonian integrals :      6495
  | Number of basis functions in a single unit cell        :       269
  | Number of centers in hartree potential         :       845
  | Number of centers in hartree multipole         :       421
  | Number of centers in electron density summation:       285
  | Number of centers in basis integrals           :       317
  | Number of centers in integrals                 :       131
  | Number of centers in hamiltonian               :       285
  | Consuming       5748 KiB for k_phase.
  | Number of super-cells (origin) [n_cells]                     :        1521
  | Number of super-cells (after PM_index) [n_cells]             :         126
  | Number of super-cells in hamiltonian [n_cells_in_hamiltonian]:         126
  | Size of matrix packed + index [n_hamiltonian_matrix_size] :     1382752
  Initializing relaxation algorithms.
  Partitioning the integration grid into batches with parallel hashing+maxmin method.
  | Number of batches:     1240
  | Maximal batch size:     113
  | Minimal batch size:      50
  | Average batch size:      77.050
  | Standard deviation of batch sizes:      13.078

  Integration load balanced across    80 MPI tasks.
  Work distribution over tasks is as follows:
  Task     0 has       1218 integration points.
  Task     1 has       1203 integration points.
  Task     2 has       1209 integration points.
  Task     3 has       1203 integration points.
  Task     4 has       1201 integration points.
  Task     5 has       1204 integration points.
  Task     6 has       1207 integration points.
  Task     7 has       1205 integration points.
  Task     8 has       1177 integration points.
  Task     9 has       1189 integration points.
  Task    10 has       1156 integration points.
  Task    11 has       1180 integration points.
  Task    12 has       1182 integration points.
  Task    13 has       1184 integration points.
  Task    14 has       1209 integration points.
  Task    15 has       1212 integration points.
  Task    16 has       1216 integration points.
  Task    17 has       1208 integration points.
  Task    18 has       1209 integration points.
  Task    19 has       1152 integration points.
  Task    20 has       1214 integration points.
  Task    21 has       1204 integration points.
  Task    22 has       1180 integration points.
  Task    23 has       1217 integration points.
  Task    24 has       1166 integration points.
  Task    25 has       1213 integration points.
  Task    26 has       1150 integration points.
  Task    27 has       1203 integration points.
  Task    28 has       1182 integration points.
  Task    29 has       1186 integration points.
  Task    30 has       1200 integration points.
  Task    31 has       1195 integration points.
  Task    32 has       1207 integration points.
  Task    33 has       1197 integration points.
  Task    34 has       1163 integration points.
  Task    35 has       1199 integration points.
  Task    36 has       1215 integration points.
  Task    37 has       1203 integration points.
  Task    38 has       1197 integration points.
  Task    39 has       1201 integration points.
  Task    40 has       1211 integration points.
  Task    41 has       1220 integration points.
  Task    42 has       1178 integration points.
  Task    43 has       1216 integration points.
  Task    44 has       1196 integration points.
  Task    45 has       1203 integration points.
  Task    46 has       1193 integration points.
  Task    47 has       1207 integration points.
  Task    48 has       1209 integration points.
  Task    49 has       1165 integration points.
  Task    50 has       1214 integration points.
  Task    51 has       1212 integration points.
  Task    52 has       1159 integration points.
  Task    53 has       1205 integration points.
  Task    54 has       1200 integration points.
  Task    55 has       1180 integration points.
  Task    56 has       1182 integration points.
  Task    57 has       1216 integration points.
  Task    58 has       1185 integration points.
  Task    59 has       1218 integration points.
  Task    60 has       1201 integration points.
  Task    61 has       1180 integration points.
  Task    62 has       1215 integration points.
  Task    63 has       1162 integration points.
  Task    64 has       1182 integration points.
  Task    65 has       1156 integration points.
  Task    66 has       1206 integration points.
  Task    67 has       1205 integration points.
  Task    68 has       1152 integration points.
  Task    69 has       1202 integration points.
  Task    70 has       1203 integration points.
  Task    71 has       1205 integration points.
  Task    72 has       1180 integration points.
  Task    73 has       1185 integration points.
  Task    74 has       1210 integration points.
  Task    75 has       1190 integration points.
  Task    76 has       1204 integration points.
  Task    77 has       1179 integration points.
  Task    78 has       1154 integration points.
  Task    79 has       1186 integration points.
  Initializing partition tables, free-atom densities, potentials, etc. across the integration grid (initialize_grid_storage).
  | initialize_grid_storage: Actual outermost partition radius vs. multipole_radius_free
  | (-- VB: in principle, multipole_radius_free should be larger, hence this output)
  | Species        1: Confinement radius =              6.000000000000000 AA, multipole_radius_free =              6.010396164504727 AA.
  | Species        1: outer_partition_radius set to              6.010396164504727 AA .
  | Species        2: Confinement radius =              6.000000000000000 AA, multipole_radius_free =              6.056084577048819 AA.
  | Species        2: outer_partition_radius set to              6.056084577048819 AA .
  | Original list of interatomic distances with         317 x        317 entries is created.
  | Net number of integration points:    95542
  | of which are non-zero points    :    81440
  | Numerical average free-atom electrostatic potential    :    -19.19601256 eV
  Renormalizing the initial density to the exact electron count on the 3D integration grid.
  | Initial density: Formal number of electrons (from input files) :     176.0000000000
  | Integrated number of electrons on 3D grid     :     175.9999066774
  | Charge integration error                      :      -0.0000933226
  | Normalization factor for density and gradient :       1.0000005302
  Obtaining max. number of non-zero basis functions in each batch (get_n_compute_maxes).
  | Maximal number of non-zero basis functions:     1946 in task     0
  | Maximal number of non-zero basis functions:     1811 in task     1
  | Maximal number of non-zero basis functions:     1934 in task     2
  | Maximal number of non-zero basis functions:     1799 in task     3
  | Maximal number of non-zero basis functions:     1928 in task     4
  | Maximal number of non-zero basis functions:     1876 in task     5
  | Maximal number of non-zero basis functions:     1901 in task     6
  | Maximal number of non-zero basis functions:     1787 in task     7
  | Maximal number of non-zero basis functions:     1894 in task     8
  | Maximal number of non-zero basis functions:     1851 in task     9
  | Maximal number of non-zero basis functions:     2035 in task    10
  | Maximal number of non-zero basis functions:     1819 in task    11
  | Maximal number of non-zero basis functions:     1945 in task    12
  | Maximal number of non-zero basis functions:     1825 in task    13
  | Maximal number of non-zero basis functions:     1847 in task    14
  | Maximal number of non-zero basis functions:     1825 in task    15
  | Maximal number of non-zero basis functions:     1879 in task    16
  | Maximal number of non-zero basis functions:     1913 in task    17
  | Maximal number of non-zero basis functions:     1842 in task    18
  | Maximal number of non-zero basis functions:     1843 in task    19
  | Maximal number of non-zero basis functions:     1838 in task    20
  | Maximal number of non-zero basis functions:     1877 in task    21
  | Maximal number of non-zero basis functions:     2020 in task    22
  | Maximal number of non-zero basis functions:     1831 in task    23
  | Maximal number of non-zero basis functions:     1915 in task    24
  | Maximal number of non-zero basis functions:     1882 in task    25
  | Maximal number of non-zero basis functions:     1833 in task    26
  | Maximal number of non-zero basis functions:     1856 in task    27
  | Maximal number of non-zero basis functions:     1790 in task    28
  | Maximal number of non-zero basis functions:     1869 in task    29
  | Maximal number of non-zero basis functions:     1984 in task    30
  | Maximal number of non-zero basis functions:     1846 in task    31
  | Maximal number of non-zero basis functions:     1858 in task    32
  | Maximal number of non-zero basis functions:     1943 in task    33
  | Maximal number of non-zero basis functions:     1804 in task    34
  | Maximal number of non-zero basis functions:     1819 in task    35
  | Maximal number of non-zero basis functions:     2032 in task    36
  | Maximal number of non-zero basis functions:     1909 in task    37
  | Maximal number of non-zero basis functions:     1851 in task    38
  | Maximal number of non-zero basis functions:     1831 in task    39
  | Maximal number of non-zero basis functions:     1832 in task    40
  | Maximal number of non-zero basis functions:     1958 in task    41
  | Maximal number of non-zero basis functions:     1989 in task    42
  | Maximal number of non-zero basis functions:     1941 in task    43
  | Maximal number of non-zero basis functions:     1793 in task    44
  | Maximal number of non-zero basis functions:     1725 in task    45
  | Maximal number of non-zero basis functions:     1856 in task    46
  | Maximal number of non-zero basis functions:     1879 in task    47
  | Maximal number of non-zero basis functions:     2027 in task    48
  | Maximal number of non-zero basis functions:     1963 in task    49
  | Maximal number of non-zero basis functions:     1847 in task    50
  | Maximal number of non-zero basis functions:     1730 in task    51
  | Maximal number of non-zero basis functions:     1894 in task    52
  | Maximal number of non-zero basis functions:     1783 in task    53
  | Maximal number of non-zero basis functions:     1984 in task    54
  | Maximal number of non-zero basis functions:     1906 in task    55
  | Maximal number of non-zero basis functions:     2108 in task    56
  | Maximal number of non-zero basis functions:     1798 in task    57
  | Maximal number of non-zero basis functions:     1900 in task    58
  | Maximal number of non-zero basis functions:     1905 in task    59
  | Maximal number of non-zero basis functions:     1874 in task    60
  | Maximal number of non-zero basis functions:     1888 in task    61
  | Maximal number of non-zero basis functions:     1867 in task    62
  | Maximal number of non-zero basis functions:     1909 in task    63
  | Maximal number of non-zero basis functions:     1950 in task    64
  | Maximal number of non-zero basis functions:     1938 in task    65
  | Maximal number of non-zero basis functions:     1759 in task    66
  | Maximal number of non-zero basis functions:     1895 in task    67
  | Maximal number of non-zero basis functions:     1828 in task    68
  | Maximal number of non-zero basis functions:     1879 in task    69
  | Maximal number of non-zero basis functions:     1826 in task    70
  | Maximal number of non-zero basis functions:     1852 in task    71
  | Maximal number of non-zero basis functions:     1884 in task    72
  | Maximal number of non-zero basis functions:     1905 in task    73
  | Maximal number of non-zero basis functions:     1944 in task    74
  | Maximal number of non-zero basis functions:     1879 in task    75
  | Maximal number of non-zero basis functions:     2041 in task    76
  | Maximal number of non-zero basis functions:     1885 in task    77
  | Maximal number of non-zero basis functions:     1896 in task    78
  | Maximal number of non-zero basis functions:     1892 in task    79
  Allocating       16.734 MB for KS_eigenvector_complex
  Integrating Hamiltonian matrix: batch-based integration.
  Time summed over all CPUs for integration: real work       48.084 s, elapsed       52.438 s
  Integrating overlap matrix.
  Time summed over all CPUs for integration: real work       36.625 s, elapsed       40.708 s
  Decreasing sparse matrix size:
   Tolerance:  9.999999824516700E-014
   Hamiltonian matrix
  | Array has  1204666 nonzero elements out of  1382752 elements
  | Sparsity factor is 0.129
   Overlap matrix
  | Array has  1097161 nonzero elements out of  1382752 elements
  | Sparsity factor is 0.207
  New size of hamiltonian matrix:     1204980

  Updating Kohn-Sham eigenvalues and eigenvectors using ELSI and the ELPA eigensolver.
  Overlap matrix is nonsingular
  | Lowest eigenvalue of overlap  :  0.53E-04
  | Highest eigenvalue of overlap :  0.96E+01
  Finished singularity check of overlap matrix
  | Time :     0.011 s
  Finished Cholesky decomposition
  | Time :     0.003 s
  Finished transformation to standard eigenproblem
  | Time :     0.006 s
  Starting LAPACK eigensolver
  Finished solving standard eigenproblem
  | Time :     0.013 s
  Finished back-transformation of eigenvectors
  | Time :     0.001 s

  Obtaining occupation numbers and chemical potential using ELSI.
  | Chemical potential (Fermi level):    -5.34184651eV
  Writing Kohn-Sham eigenvalues.
  K-point:       1 at    0.000000    0.000000    0.000000 (in units of recip. lattice)

  State    Occupation    Eigenvalue [Ha]    Eigenvalue [eV]
      1       2.00000       -2584.851857       -70337.39776
      2       2.00000       -1205.207662       -32795.36910
      3       2.00000       -1205.207634       -32795.36834
      4       2.00000        -416.418529       -11331.32471
      5       2.00000        -365.124454        -9935.54191
      6       2.00000        -365.124453        -9935.54188
      7       2.00000        -365.124453        -9935.54188
      8       2.00000        -179.446808        -4882.99608
      9       2.00000        -179.446780        -4882.99532
     10       2.00000        -161.008816        -4381.27281
     11       2.00000        -161.008809        -4381.27260
     12       2.00000        -161.008809        -4381.27260
     13       2.00000        -161.008788        -4381.27205
     14       2.00000        -161.008781        -4381.27184
     15       2.00000        -161.008781        -4381.27184
     16       2.00000         -93.837085        -2553.43699
     17       2.00000         -78.781438        -2143.75200
     18       2.00000         -78.781426        -2143.75169
     19       2.00000         -78.781426        -2143.75168
     20       2.00000         -61.037097        -1660.90392
     21       2.00000         -61.037096        -1660.90388
     22       2.00000         -61.037096        -1660.90388
     23       2.00000         -61.037088        -1660.90368
     24       2.00000         -61.037088        -1660.90368
     25       2.00000         -35.527902         -966.76340
     26       2.00000         -35.527873         -966.76261
     27       2.00000         -29.582457         -804.97961
     28       2.00000         -29.582428         -804.97883
     29       2.00000         -29.582386         -804.97769
     30       2.00000         -29.582386         -804.97768
     31       2.00000         -29.582357         -804.97690
     32       2.00000         -29.582357         -804.97689
     33       2.00000         -20.613350         -560.91780
     34       2.00000         -20.613340         -560.91752
     35       2.00000         -20.613340         -560.91752
     36       2.00000         -20.613322         -560.91702
     37       2.00000         -20.613311         -560.91674
     38       2.00000         -20.613311         -560.91674
     39       2.00000         -20.613293         -560.91624
     40       2.00000         -20.613293         -560.91624
     41       2.00000         -20.613264         -560.91545
     42       2.00000         -20.613264         -560.91545
     43       2.00000         -18.839959         -512.66137
     44       2.00000         -13.928048         -379.00148
     45       2.00000         -13.927980         -378.99963
     46       2.00000         -13.927979         -378.99960
     47       2.00000          -7.596083         -206.69994
     48       2.00000          -7.596082         -206.69990
     49       2.00000          -7.596045         -206.69890
     50       2.00000          -7.595979         -206.69712
     51       2.00000          -7.595979         -206.69710
     52       2.00000          -6.053079         -164.71267
     53       2.00000          -6.053046         -164.71175
     54       2.00000          -4.216426         -114.73479
     55       2.00000          -4.216393         -114.73388
     56       2.00000          -4.215926         -114.72118
     57       2.00000          -4.215924         -114.72112
     58       2.00000          -4.215890         -114.72022
     59       2.00000          -4.215888         -114.72016
     60       2.00000          -2.469605          -67.20137
     61       2.00000          -1.546982          -42.09551
     62       2.00000          -1.546976          -42.09537
     63       2.00000          -1.546902          -42.09333
     64       2.00000          -1.546896          -42.09318
     65       2.00000          -1.546470          -42.08160
     66       2.00000          -1.546403          -42.07977
     67       2.00000          -1.545808          -42.06359
     68       2.00000          -1.545806          -42.06352
     69       2.00000          -1.545757          -42.06220
     70       2.00000          -1.545755          -42.06214
     71       2.00000          -1.323113          -36.00375
     72       2.00000          -1.319494          -35.90526
     73       2.00000          -1.319484          -35.90499
     74       2.00000          -0.663587          -18.05713
     75       2.00000          -0.629553          -17.13100
     76       2.00000          -0.627111          -17.06456
     77       2.00000          -0.627109          -17.06452
     78       2.00000          -0.626516          -17.04836
     79       2.00000          -0.626515          -17.04835
     80       2.00000          -0.626407          -17.04540
     81       2.00000          -0.626079          -17.03646
     82       2.00000          -0.603756          -16.42905
     83       2.00000          -0.405786          -11.04201
     84       2.00000          -0.270163           -7.35152
     85       2.00000          -0.270141           -7.35090
     86       0.00594          -0.195594           -5.32239
     87       0.00000          -0.180046           -4.89930
     88       0.00000          -0.180023           -4.89868
     89       0.00000          -0.169462           -4.61130
     90       0.00000          -0.151286           -4.11671
     91       0.00000          -0.151261           -4.11601
     92       0.00000          -0.052263           -1.42214
     93       0.00000          -0.052161           -1.41938
     94       0.00000          -0.033542           -0.91274
     95       0.00000          -0.030875           -0.84016
     96       0.00000           0.078516            2.13654
     97       0.00000           0.078653            2.14026
     98       0.00000           0.154703            4.20967
     99       0.00000           0.170490            4.63928
    100       0.00000           0.204000            5.55113
    101       0.00000           0.213888            5.82020
    102       0.00000           0.228586            6.22014
    103       0.00000           0.228633            6.22142
    104       0.00000           0.231141            6.28967
    105       0.00000           0.231193            6.29108
    106       0.00000           0.295796            8.04901
    107       0.00000           0.297858            8.10512
    108       0.00000           0.297935            8.10722

  What follows are estimated values for band gap, HOMO, LUMO, etc.
  | They are estimated on a discrete k-point grid and not necessarily exact.
  | For converged numbers, create a DOS and/or band structure plot on a denser k-grid.

  Highest occupied state (VBM) at     -5.34351483 eV (relative to internal zero)
  | Occupation number:      1.18651732
  | K-point:     175 at    0.055556    0.000000    0.722222 (in units of recip. lattice)

  Lowest unoccupied state (CBM) at    -5.33863570 eV (relative to internal zero)
  | Occupation number:      0.64977316
  | K-point:      18 at    0.000000    0.055556    0.555556 (in units of recip. lattice)

  ESTIMATED overall HOMO-LUMO gap:      0.00487913 eV between HOMO at k-point 175 and LUMO at k-point 18
  | This appears to be an indirect band gap.
  | Smallest direct gap :      0.07910778 eV for k_point 11 at    0.000000    0.055556    0.555556 (in units of recip. lattice)
  However, this system has fractional occupation numbers. Since we use a finite k-point grid,
  this material is metallic within the approximate finite broadening function (occupation_type)
  applied to determine the occupation numbers.
  Calculating total energy contributions from superposition of free atom densities.

  Total energy components:
  | Sum of eigenvalues            :      -18174.73442122 Ha     -494559.68652118 eV
  | XC energy correction          :        -665.47275998 Ha      -18108.43514601 eV
  | XC potential correction       :         869.26998414 Ha       23654.03977266 eV
  | Free-atom electrostatic energy:      -11329.60081347 Ha     -308294.12396685 eV
  | Hartree energy correction     :           0.00000000 Ha           0.00000000 eV
  | Entropy correction            :          -0.00000071 Ha          -0.00001927 eV
  | ---------------------------
  | Total energy                  :      -29300.53801053 Ha     -797308.20586138 eV
  | Total energy, T -> 0          :      -29300.53801124 Ha     -797308.20588065 eV  <-- do not rely on this value for anything but (periodic) metals
  | Electronic free energy        :      -29300.53801195 Ha     -797308.20589992 eV

  Derived energy quantities:
  | Kinetic energy                :       31480.63592975 Ha      856631.68858886 eV
  | Electrostatic energy          :      -60115.70118030 Ha    -1635831.45930423 eV
  | Energy correction for multipole
  | error in Hartree potential    :           0.00000000 Ha           0.00000000 eV
  | Sum of eigenvalues per atom                           :     -164853.22884039 eV
  | Total energy (T->0) per atom                          :     -265769.40196022 eV  <-- do not rely on this value for anything but (periodic) metals
  | Electronic free energy per atom                       :     -265769.40196664 eV
  Initialize hartree_potential_storage
  Max. number of atoms included in rho_multipole:            3

  End scf initialization - timings             :  max(cpu_time)    wall_clock(cpu1)
  | Time for scf. initialization               :        4.092 s           4.085 s
  | Boundary condition initialization          :        0.180 s           0.175 s
  | Relaxation initialization                  :        0.004 s           0.000 s
  | Integration                                :        1.236 s           1.231 s
  | Solution of K.-S. eqns.                    :        2.420 s           2.421 s
  | Grid partitioning                          :        0.124 s           0.122 s
  | Preloading free-atom quantities on grid    :        0.016 s           0.014 s
  | Free-atom superposition energy             :        0.008 s           0.006 s
  | Total energy evaluation                    :        0.016 s           0.009 s

  Partial memory accounting:
  | Current value for overall tracked memory usage on task 0  :          40.835 MB
  | Peak value for overall tracked memory usage on task 0     :          80.010 MB after allocating wave
  | Largest tracked array allocation on task 0 so far         :          30.295 MB  when allocating hamiltonian_shell
  Note:  These values currently only include a subset of arrays which are explicitly tracked.
  The "true" memory usage will be greater.
------------------------------------------------------------

------------------------------------------------------------
          Begin self-consistency iteration #    1

  Date     :  20191130, Time     :  160313.235
------------------------------------------------------------
  Evaluating new KS density using the density matrix
  Evaluating density matrix
  Time summed over all CPUs for getting density from density matrix: real work      101.343 s, elapsed      109.271 s
  Integration grid: deviation in total charge (<rho> - N_e) =  -1.099522E-09
  Pulay mixing of updated and previous charge densities.

  Evaluating partitioned Hartree potential by multipole expansion.
  | Analytical far-field extrapolation by fixed multipoles:
  | Hartree multipole sum: apparent total charge =   0.199799E-04
  Summing up the Hartree potential.
  | Estimated reciprocal-space cutoff momentum G_max:         2.17489329 bohr^-1 .
  | Reciprocal lattice points for long-range Hartree potential:      98
  Time summed over all CPUs for potential: real work        6.303 s, elapsed        6.568 s
  | RMS charge density error from multipole expansion :   0.870281E-04
  | Average real-space part of the electrostatic potential :      0.00108229 eV

  Integrating Hamiltonian matrix: batch-based integration.
  Time summed over all CPUs for integration: real work       46.931 s, elapsed       51.192 s

  Updating Kohn-Sham eigenvalues and eigenvectors using ELSI and the ELPA eigensolver.
  Finished Cholesky decomposition
  | Time :     0.003 s
  Finished transformation to standard eigenproblem
  | Time :     0.005 s
  Starting LAPACK eigensolver
  Finished solving standard eigenproblem
  | Time :     0.013 s
  Finished back-transformation of eigenvectors
  | Time :     0.001 s

  Obtaining occupation numbers and chemical potential using ELSI.
  | Chemical potential (Fermi level):    -5.33929924eV
  Writing Kohn-Sham eigenvalues.
  K-point:       1 at    0.000000    0.000000    0.000000 (in units of recip. lattice)

  State    Occupation    Eigenvalue [Ha]    Eigenvalue [eV]
      1       2.00000       -2584.853603       -70337.44527
      2       2.00000       -1205.207070       -32795.35297
      3       2.00000       -1205.207040       -32795.35217
      4       2.00000        -416.420323       -11331.37352
      5       2.00000        -365.126246        -9935.59066
      6       2.00000        -365.126246        -9935.59066
      7       2.00000        -365.126245        -9935.59064
      8       2.00000        -179.446317        -4882.98274
      9       2.00000        -179.446288        -4882.98193
     10       2.00000        -161.008315        -4381.25916
     11       2.00000        -161.008306        -4381.25893
     12       2.00000        -161.008306        -4381.25893
     13       2.00000        -161.008285        -4381.25835
     14       2.00000        -161.008277        -4381.25813
     15       2.00000        -161.008277        -4381.25813
     16       2.00000         -93.838801        -2553.48369
     17       2.00000         -78.783151        -2143.79861
     18       2.00000         -78.783142        -2143.79837
     19       2.00000         -78.783142        -2143.79836
     20       2.00000         -61.038831        -1660.95110
     21       2.00000         -61.038828        -1660.95102
     22       2.00000         -61.038828        -1660.95101
     23       2.00000         -61.038823        -1660.95089
     24       2.00000         -61.038823        -1660.95089
     25       2.00000         -35.527488         -966.75214
     26       2.00000         -35.527458         -966.75131
     27       2.00000         -29.582042         -804.96833
     28       2.00000         -29.582012         -804.96750
     29       2.00000         -29.581971         -804.96639
     30       2.00000         -29.581971         -804.96639
     31       2.00000         -29.581941         -804.96556
     32       2.00000         -29.581940         -804.96556
     33       2.00000         -20.612931         -560.90640
     34       2.00000         -20.612921         -560.90612
     35       2.00000         -20.612921         -560.90612
     36       2.00000         -20.612901         -560.90558
     37       2.00000         -20.612891         -560.90530
     38       2.00000         -20.612891         -560.90529
     39       2.00000         -20.612874         -560.90483
     40       2.00000         -20.612874         -560.90483
     41       2.00000         -20.612843         -560.90400
     42       2.00000         -20.612843         -560.90400
     43       2.00000         -18.841375         -512.69990
     44       2.00000         -13.929421         -379.03884
     45       2.00000         -13.929365         -379.03730
     46       2.00000         -13.929364         -379.03727
     47       2.00000          -7.597411         -206.73607
     48       2.00000          -7.597410         -206.73604
     49       2.00000          -7.597387         -206.73543
     50       2.00000          -7.597330         -206.73387
     51       2.00000          -7.597330         -206.73386
     52       2.00000          -6.052723         -164.70297
     53       2.00000          -6.052688         -164.70202
     54       2.00000          -4.216062         -114.72488
     55       2.00000          -4.216027         -114.72393
     56       2.00000          -4.215576         -114.71167
     57       2.00000          -4.215574         -114.71161
     58       2.00000          -4.215540         -114.71067
[...]
  |   0.163858     99.557     99.534     94.871      0.007      0.009      0.016
  |   0.260739     75.312     75.295     75.432      0.007      0.009      0.012
  |   0.399006     49.436     49.427     50.415      0.004      0.005      0.006
  |   0.600000     28.182     28.180     28.602      0.001      0.002      0.002
  |   0.902242     14.333     14.333     14.443      0.000      0.000      0.000
  |   1.380693      6.582      6.582      6.605      0.000      0.000      0.000
  |   2.197021      2.693      2.693      2.696      0.000      0.000      0.000
  |   3.754417      0.937      0.937      0.937      0.000      0.000      0.000
  |   7.305481      0.249      0.249      0.249      0.000      0.000      0.000
  |  18.530638      0.039      0.039      0.039      0.000      0.000      0.000
  |  99.337689      0.001      0.001      0.001      0.000      0.000      0.000
  | --------------------------------------------------------------
  | Partitioned atomic C6 coefficients and polarizabilities (a.u.)
  | --------------------------------------------------------------
  | ATOM   1  Hf  846.436463         76.136120
  | ATOM   2  Te  284.842043         24.727141
  | ATOM   3  Te  284.952344         24.739629
  | --------------------------------------------------------------
  | Computing MBD@rsSCS energy...
    WARNING: Found 548 Negative Eigenvalues.
  | --------------------------------------------------------------

  Total energy components:
  | Sum of eigenvalues            :      -18176.68469230 Ha     -494612.75609733 eV
  | XC energy correction          :        -665.44103242 Ha      -18107.57179530 eV
  | XC potential correction       :         869.22445592 Ha       23652.80088686 eV
  | Free-atom electrostatic energy:      -11329.61260497 Ha     -308294.44482987 eV
  | Hartree energy correction     :           1.98312436 Ha          53.96355949 eV
  | Entropy correction            :          -0.00002623 Ha          -0.00071379 eV
  | ---------------------------
  | Total energy                  :      -29300.58107536 Ha     -797309.37771509 eV
  | Total energy, T -> 0          :      -29300.58110159 Ha     -797309.37842888 eV  <-- do not rely on this value for anything but (periodic) metals
  | Electronic free energy        :      -29300.58112782 Ha     -797309.37914267 eV

  Derived energy quantities:
  | Kinetic energy                :       31480.43875242 Ha      856626.32312089 eV
  | Electrostatic energy          :      -60115.52846941 Ha    -1635826.75960174 eV
  | Energy correction for multipole
  | error in Hartree potential    :          -0.00052699 Ha          -0.01434020 eV
  | Sum of eigenvalues per atom                           :     -164870.91869911 eV
  | Total energy (T->0) per atom                          :     -265769.79280963 eV  <-- do not rely on this value for anything but (periodic) metals
  | Electronic free energy per atom                       :     -265769.79304756 eV

  atomic forces [eV/Ang]:
  -----------------------
  atom #    1
   Hellmann-Feynman              :  0.636291E-02 -0.349052E-02  0.256575E-01
   Ionic forces                  :  0.000000E+00  0.000000E+00  0.000000E+00
   Multipole                     :  0.266500E-04 -0.163099E-04 -0.608680E-03
   Pulay + GGA                   : -0.811377E-02  0.448110E-02 -0.169227E-01
   Van der Waals                 :  0.154520E-05 -0.980798E-06  0.576230E-04
   ----------------------------------------------------------------
   Total forces(   1)            : -0.172266E-02  0.973283E-03  0.818383E-02
  atom #    2
   Hellmann-Feynman              :  0.906873E-03  0.106723E-01  0.765222E+01
   Ionic forces                  :  0.000000E+00  0.000000E+00  0.000000E+00
   Multipole                     :  0.883962E-04 -0.368125E-04 -0.595383E-01
   Pulay + GGA                   : -0.423980E-02 -0.139846E-01 -0.753530E+01
   Van der Waals                 : -0.107547E-03  0.370416E-04 -0.636224E-01
   ----------------------------------------------------------------
   Total forces(   2)            : -0.335208E-02 -0.331216E-02 -0.624539E-02
  atom #    3
   Hellmann-Feynman              : -0.116611E-01 -0.464355E-02 -0.762792E+01
   Ionic forces                  :  0.000000E+00  0.000000E+00  0.000000E+00
   Multipole                     : -0.195513E-05 -0.108820E-04  0.592676E-01
   Pulay + GGA                   :  0.166227E-01  0.703711E-02  0.750332E+01
   Van der Waals                 :  0.106002E-03 -0.360608E-04  0.635648E-01
   ----------------------------------------------------------------
   Total forces(   3)            :  0.506566E-02  0.234661E-02 -0.176650E-02


  Analytical stress tensor components [eV]         xx                  yy                  zz                  xy                  xz                  yz
  -----------------------------------------------------------------------------------------------------------------------------------------------------------
    Nuclear Hellmann-Feynman      :    -0.4274263273E+02   -0.4271699191E+02   -0.6358388199E+02   -0.2009025934E-01   -0.2385819569E-01   -0.1552967241E-01
    Multipole Hellmann-Feynman    :    -0.9082623694E+02   -0.9074987276E+02   -0.1168859788E+03   -0.5490206452E-01   -0.5785072635E-01   -0.3977327918E-01
    On-site Multipole corrections :    -0.6556994730E+01   -0.6557085241E+01   -0.6557008375E+01   -0.1737476167E-06   -0.3004017221E-07   -0.5713277724E-04
    Strain deriv. of the orbitals :     0.1387902467E+03    0.1386959633E+03    0.1860590631E+03    0.6997921393E-01    0.6891713003E-01    0.4630695730E-01
    vdW correction   :     0.1340828589E+01    0.1337134076E+01    0.9515417978E+00   -0.3444960888E-02   -0.1286742633E-03    0.1575459937E-03
  -----------------------------------------------------------------------------------------------------------------------------------------------------------
  Sum of all contributions        :     0.5210890912E-02    0.9147431330E-02   -0.1626429051E-01   -0.8458244563E-02   -0.1292049632E-01   -0.8895581076E-02

  +-------------------------------------------------------------------+
  |              Analytical stress tensor - Symmetrized               |
  |                  Cartesian components [eV/A**3]                   |
  +-------------------------------------------------------------------+
  |                x                y                z                |
  |                                                                   |
  |  x         0.00006060      -0.00009836      -0.00015025           |
  |  y        -0.00009836       0.00010638      -0.00010345           |
  |  z        -0.00015025      -0.00010345      -0.00018914           |
  |                                                                   |
  |  Pressure:       0.00000739   [eV/A**3]                           |
  |                                                                   |
  +-------------------------------------------------------------------+

 * Warning: Stress tensor is anisotropic. Be aware that pressure is an isotropic quantity.

  Timings for VdW correction (Tkatchenko-Scheffler 2009 or later):
  | CPU time:        4.912 s, Wall clock time:        4.905 s.
  Removing unitary transformations (pure translations, rotations) from forces on atoms.
  Atomic forces before filtering:
  | Net force on center of mass :  -0.907282E-05  0.773606E-05  0.171939E-03 eV/A
  Removing unitary transformations (rotations) from forces on lattice.
  Lattice forces before filtering:
  | Net torque relative to origin:  -0.233640E-19 -0.127646E-19 -0.158293E-12 eV
  Atomic forces after filtering:
  | Net force on center of mass :   0.696899E-18  0.000000E+00 -0.209070E-17 eV/A
  Lattice forces after filtering:
  | Net torque relative to origin:  -0.233640E-19 -0.127646E-19 -0.158293E-12 eV

  Energy and forces in a compact form:
  | Total energy uncorrected      :         -0.797309377715095E+06 eV
  | Total energy corrected        :         -0.797309378428883E+06 eV  <-- do not rely on this value for anything but (periodic) metals
  | Electronic free energy        :         -0.797309379142670E+06 eV
  Total atomic forces (unitary forces cleaned) [eV/Ang]:
  |   1         -0.171963483775231E-02          0.970704774958142E-03          0.812651540170639E-02
  |   2         -0.334905203177917E-02         -0.331473982896844E-02         -0.630270180645185E-02
  |   3          0.506868686953148E-02          0.234403505401030E-02         -0.182381359525454E-02

  ------------------------------------ 
  Start decomposition of the XC Energy 
  ------------------------------------ 
  X and C from original XC functional choice 
  Hartree-Fock Energy :          0.000000000 Ha              0.000000000 eV
  X Energy            :       -655.459321586 Ha         -17835.955623781 eV
  C Energy            :         -9.981710836 Ha           -271.616171522 eV
  Total XC Energy     :       -665.441032422 Ha         -18107.571795302 eV
  ------------------------------------ 
  LDA X and C from self-consistent density 
  X Energy LDA        :       -627.070638790 Ha         -17063.460260788 eV
  C Energy LDA        :        -17.418536761 Ha           -473.982501226 eV
  ------------------------------------ 
  End decomposition of the XC Energy 
  ------------------------------------ 

------------------------------------------------------------
  Relaxation / MD: End force evaluation.       :  max(cpu_time)    wall_clock(cpu1)
  | Time for this force evaluation             :      102.304 s         102.914 s

------------------------------------------------------------
  Geometry optimization: Attempting to predict improved coordinates.

  +-------------------------------------------------------------------+
  | Generalized derivatives on lattice vectors [eV/A]                 |
  +-------------------------------------------------------------------+
  |lattice_vector       0.00008467      -0.00082130      -0.00466784  |
  |lattice_vector      -0.00252477       0.00273049      -0.00265531  |
  |lattice_vector      -0.00194712      -0.00134057      -0.00245103  |
  +-------------------------------------------------------------------+
  | Forces on lattice vectors cleaned from atomic contributions [eV/A]|
  +-------------------------------------------------------------------+
  |lattice_vector       0.00272388       0.00270917       0.00616155  |
  |lattice_vector      -0.00027984      -0.00461573       0.00116367  |
  |lattice_vector      -0.00034905      -0.00020282       0.00123015  |
  +-------------------------------------------------------------------+
  | Projected forces for shape relaxation  [eV/A]                     |
  +-------------------------------------------------------------------+
  |lattice_vector       0.00272388      -0.00000000       0.00000000  |
  |lattice_vector       0.00192871      -0.00334062      -0.00000000  |
  |lattice_vector      -0.00000000       0.00000000       0.00123015  |
  +-------------------------------------------------------------------+
  Removing unitary transformations (pure translations, rotations) from forces on atoms.
  Atomic forces before filtering:
  | Net force on center of mass :   0.696899E-18  0.000000E+00 -0.209070E-17 eV/A
  Removing unitary transformations (rotations) from forces on lattice.
  Lattice forces before filtering:
  | Net torque relative to origin:   0.000000E+00 -0.319868E-36  0.000000E+00 eV
  Atomic forces after filtering:
  | Net force on center of mass :   0.696899E-18  0.000000E+00  0.139380E-17 eV/A
  Lattice forces after filtering:
  | Net torque relative to origin:   0.000000E+00 -0.319868E-36  0.000000E+00 eV
  || Forces on lattice vectors || =   0.334062E-02 eV/A.
  Net remaining forces (excluding translations, rotations) in present geometry:
  Maximum force component is  0.812652E-02 eV/A.
  Present geometry is converged.

------------------------------------------------------------
  Final atomic structure:
                         x [A]             y [A]             z [A]
  lattice_vector         3.86824516       -0.00000000        0.00000000
  lattice_vector        -1.93418459        3.35010600        0.00000000
  lattice_vector        -0.00000000        0.00000000        6.63569093

            atom         0.00027640       -0.00015397       -0.00041701  Hf
            atom         0.00064713        2.23404607        4.82596210  Te
            atom         1.93313703        1.11621389        1.81014584  Te

  Fractional coordinates:
                         L1                L2                L3
       atom_frac         0.00004847       -0.00004596       -0.00006284  Hf
       atom_frac         0.33360714        0.66685832        0.72727349  Te
       atom_frac         0.66634438        0.33318763        0.27278935  Te
------------------------------------------------------------

------------------------------------------------------------------------------
  Final output of selected total energy values:

  The following output summarizes some interesting total energy values
  at the end of a run (AFTER all relaxation, molecular dynamics, etc.).

  | Total energy of the DFT / Hartree-Fock s.c.f. calculation      :        -797309.377715095 eV
  | Final zero-broadening corrected energy (caution - metals only) :        -797309.378428883 eV
  | For reference only, the value of 1 Hartree used in FHI-aims is :             27.211384500 eV

  Before relying on these values, please be sure to understand exactly which
  total energy value is referred to by a given number. Different objects may
  all carry the same name 'total energy'. Definitions:

  Total energy of the DFT / Hartree-Fock s.c.f. calculation:
  | Note that this energy does not include ANY quantities calculated after the
  | s.c.f. cycle, in particular not ANY RPA, MP2, etc. many-body perturbation terms.

  Final zero-broadening corrected energy:
  | For metallic systems only, a broadening of the occupation numbers at the Fermi
  | level can be extrapolated back to zero broadening by an electron-gas inspired
  | formula. For all systems that are not real metals, this value can be
  | meaningless and should be avoided.

------------------------------------------------------------------------------
  Methods described in the following list of references were used in this FHI-aims run.
  If you publish the results, please make sure to cite these reference if they apply.
  FHI-aims is an academic code, and for our developers (often, Ph.D. students
  and postdocs), scientific credit in the community is essential.
  Thank you for helping us!

  For any use of FHI-aims, please cite:

    Volker Blum, Ralf Gehrke, Felix Hanke, Paula Havu, Ville Havu,
    Xinguo Ren, Karsten Reuter, and Matthias Scheffler
    'Ab initio molecular simulations with numeric atom-centered orbitals'
    Computer Physics Communications 180, 2175-2196 (2009)
    http://dx.doi.org/10.1016/j.cpc.2009.06.022


  For the analytical stress tensor used in your run, please cite:

    Franz Knuth, Christian Carbogno, Viktor Atalla, Volker Blum, Matthias Scheffler
    'All-electron formalism for total energy strain derivatives and
    stress tensor components for numeric atom-centered orbitals'
    Computer Physics Communications 190, 33-50 (2015).
    http://dx.doi.org/10.1016/j.cpc.2015.01.003


  The scalable eigensolver library ELPA was used in your run.
  ELPA is essential especially for large systems on hundreds or thousands of CPUs.
  For ELPA, please cite:

    Andreas Marek, Volker Blum, Rainer Johanni, Ville Havu, Bruno Lang,
    Thomas Auckenthaler, Alexander Heinecke, Hans-Joachim Bungartz, and Hermann Lederer,
    'The ELPA Library - Scalable Parallel Eigenvalue Solutions
    for Electronic Structure Theory and Computational Science'
    The Journal of Physics: Condensed Matter 26, 213201 (2014).
    http://dx.doi.org/10.1088/0953-8984/26/21/213201


  The ELSI infrastructure was used in your run to solve the Kohn-Sham electronic structure.
  Please check out http://elsi-interchange.org to learn more.
  If scalability is important for your project, please acknowledge ELSI by citing:

    V. W-z. Yu, F. Corsetti, A. Garcia, W. P. Huhn, M. Jacquelin, W. Jia,
    B. Lange, L. Lin, J. Lu, W. Mi, A. Seifitokaldani, A. Vazquez-Mayagoitia,
    C. Yang, H. Yang, and V. Blum
    'ELSI: A unified software interface for Kohn-Sham electronic structure solvers'
    Computer Physics Communications 222, 267-285 (2018).
    http://dx.doi.org/10.1016/j.cpc.2017.09.007


  For the real-space grid partitioning and parallelization used in this calculation, please cite:

    Ville Havu, Volker Blum, Paula Havu, and Matthias Scheffler,
    'Efficient O(N) integration for all-electron electronic structure calculation'
    'using numerically tabulated basis functions'
    Journal of Computational Physics 228, 8367-8379 (2009).
    http://dx.doi.org/10.1016/j.jcp.2009.08.008

  Of course, there are many other important community references, e.g., those cited in the
  above references. Our list is limited to references that describe implementations in the
  FHI-aims code. The reason is purely practical (length of this list) - please credit others as well.

------------------------------------------------------------
          Leaving FHI-aims.
          Date     :  20191130, Time     :  160805.589

          Computational steps:
          | Number of self-consistency cycles          :           47
          | Number of SCF (re)initializations          :            2
          | Number of relaxation steps                 :            1

          Detailed time accounting                     :  max(cpu_time)    wall_clock(cpu1)
          | Total time                                 :      297.452 s         297.254 s
          | Preparation time                           :        0.732 s           0.733 s
          | Boundary condition initalization           :        0.312 s           0.304 s
          | Grid partitioning                          :        0.228 s           0.225 s
          | Preloading free-atom quantities on grid    :        0.068 s           0.066 s
          | Free-atom superposition energy             :        0.016 s           0.012 s
          | Total time for integrations                :       33.188 s          33.043 s
          | Total time for solution of K.-S. equations :       96.384 s          96.512 s
          | Total time for EV reorthonormalization     :        0.352 s           0.340 s
          | Total time for density & force components  :      146.748 s         146.543 s
          | Total time for mixing & preconditioning    :        1.692 s           1.603 s
          | Total time for Hartree multipole update    :        0.188 s           0.097 s
          | Total time for Hartree multipole sum       :        7.152 s           7.080 s
          | Total time for total energy evaluation     :        0.560 s           0.423 s
          | Total time for scaled ZORA corrections     :        0.000 s           0.000 s
          | Total time for vdW correction              :        9.824 s           9.811 s

          Partial memory accounting:
          | Residual value for overall tracked memory usage across tasks :           0.000 MB (should be 0.000 MB)
          | Peak values for overall tracked memory usage (after allocating wave_pulay):
          |   Minimum:      113.061 MB (on task 14)
          |   Maximum:      129.423 MB (on task 32)
          |   Average:      120.652 MB
          | Largest tracked array allocation (density_matrix_con):
          |   Minimum:       25.433 MB (on task 54)
          |   Maximum:       35.549 MB (on task 57)
          |   Average:       29.607 MB
          Note:  These values currently only include a subset of arrays which are explicitly tracked.
          The "true" memory usage will be greater.

          Have a nice day.
------------------------------------------------------------
