  MPI-parallelism will be employed.
------------------------------------------------------------
          Invoking FHI-aims ...
          Version 171221_1
          Compiled on 2018/11/06 at 11:18:49 on host headnode.

          When using FHI-aims, please cite the following reference:

          Volker Blum, Ralf Gehrke, Felix Hanke, Paula Havu,
          Ville Havu, Xinguo Ren, Karsten Reuter, and Matthias Scheffler,
          'Ab Initio Molecular Simulations with Numeric Atom-Centered Orbitals',
          Computer Physics Communications 180, 2175-2196 (2009)

          For any questions about FHI-aims, please visit the aimsclub website
          with its forums and wiki. Contributions to both the forums and the
          wiki are warmly encouraged - they are for you, and everyone is welcome there.

------------------------------------------------------------



  Date     :  20191127, Time     :  203508.087
  Time zero on CPU 1             :   0.312000000000000E+00  s.
  Internal wall clock time zero  :           344118908.087  s.

  FHI-aims created a unique identifier for this run for later identification
  aims_uuid : 090A1120-3B95-4EC5-ACD9-1593EC1A12DF

  Using       80 parallel tasks.
  Task        0 on host t017 reporting.
  Task        1 on host t017 reporting.
  Task        2 on host t017 reporting.
  Task        3 on host t017 reporting.
  Task        4 on host t017 reporting.
  Task        5 on host t017 reporting.
  Task        6 on host t017 reporting.
  Task        7 on host t017 reporting.
  Task        8 on host t017 reporting.
  Task        9 on host t017 reporting.
  Task       10 on host t017 reporting.
  Task       11 on host t017 reporting.
  Task       12 on host t017 reporting.
  Task       13 on host t017 reporting.
  Task       14 on host t017 reporting.
  Task       15 on host t017 reporting.
  Task       16 on host t017 reporting.
  Task       17 on host t017 reporting.
  Task       18 on host t017 reporting.
  Task       19 on host t017 reporting.
  Task       20 on host t011 reporting.
  Task       21 on host t011 reporting.
  Task       22 on host t011 reporting.
  Task       23 on host t011 reporting.
  Task       24 on host t011 reporting.
  Task       25 on host t011 reporting.
  Task       26 on host t011 reporting.
  Task       27 on host t011 reporting.
  Task       28 on host t011 reporting.
  Task       29 on host t011 reporting.
  Task       30 on host t011 reporting.
  Task       31 on host t011 reporting.
  Task       32 on host t011 reporting.
  Task       33 on host t011 reporting.
  Task       34 on host t011 reporting.
  Task       35 on host t011 reporting.
  Task       36 on host t011 reporting.
  Task       37 on host t011 reporting.
  Task       38 on host t011 reporting.
  Task       39 on host t011 reporting.
  Task       40 on host t010 reporting.
  Task       41 on host t010 reporting.
  Task       42 on host t010 reporting.
  Task       43 on host t010 reporting.
  Task       44 on host t010 reporting.
  Task       45 on host t010 reporting.
  Task       46 on host t010 reporting.
  Task       47 on host t010 reporting.
  Task       48 on host t010 reporting.
  Task       49 on host t010 reporting.
  Task       50 on host t010 reporting.
  Task       51 on host t010 reporting.
  Task       52 on host t010 reporting.
  Task       53 on host t010 reporting.
  Task       54 on host t010 reporting.
  Task       55 on host t010 reporting.
  Task       56 on host t010 reporting.
  Task       57 on host t010 reporting.
  Task       58 on host t010 reporting.
  Task       59 on host t010 reporting.
  Task       60 on host t009 reporting.
  Task       61 on host t009 reporting.
  Task       62 on host t009 reporting.
  Task       63 on host t009 reporting.
  Task       64 on host t009 reporting.
  Task       65 on host t009 reporting.
  Task       66 on host t009 reporting.
  Task       67 on host t009 reporting.
  Task       68 on host t009 reporting.
  Task       69 on host t009 reporting.
  Task       70 on host t009 reporting.
  Task       71 on host t009 reporting.
  Task       72 on host t009 reporting.
  Task       73 on host t009 reporting.
  Task       74 on host t009 reporting.
  Task       75 on host t009 reporting.
  Task       76 on host t009 reporting.
  Task       77 on host t009 reporting.
  Task       78 on host t009 reporting.
  Task       79 on host t009 reporting.

  Performing system and environment tests:
  | Environment variable OMP_NUM_THREADS correctly set to 1.
  | Stacksize not measured: no C compiler
  | Checking for scalapack...
  | Testing pdtran()...
  | All pdtran() tests passed.

  Obtaining array dimensions for all initial allocations:
  
  -----------------------------------------------------------------------
  Parsing control.in (first pass over file, find array dimensions only).
  The contents of control.in will be repeated verbatim below
  unless switched off by setting 'verbatim_writeout .false.' .
  in the first line of control.in .
  -----------------------------------------------------------------------
  
  #===============================================================================
  # FHI-aims file: ./control.in
  # Created using the Atomic Simulation Environment (ASE)
  # Wed Nov 27 20:14:30 2019
  #
  # List of parameters used to initialize the calculator:
  #     xc : pbe
  #     k_grid : [18, 18, 18]
  #     relativistic : ('atomic_zora', 'scalar')
  #     species_dir : /chemsoft/FHI-aims/stable/species_defaults/tight
  #     adjust_scf : once 2
  #     spin : none
  #===============================================================================
  xc                                 pbe
  many_body_dispersion
  k_grid                             18 18 18
  relativistic                       atomic_zora scalar
  adjust_scf                         once 2
  ### geometry optimisation section
  relax_geometry    bfgs    1E-2
  relax_unit_cell       fixed_angles
  spin                               none
  #===============================================================================
  
  ################################################################################
  #
  #  FHI-aims code project
  # Volker Blum, Fritz Haber Institute Berlin, 2009
  #
  #  Suggested "tight" defaults for Hf atom (to be pasted into control.in file)
  #
  ################################################################################
    species          Hf
  #     global species definitions
      nucleus        72
      mass           178.49
  #
      l_hartree      6
  #
      cut_pot        4.0  2.0  1.0
      basis_dep_cutoff    1e-4
  #
      radial_base    71  7.0
      radial_multiplier  2
      angular_grids specified
        division   0.3723   50
        division   0.7995  110
        division   1.2133  194
        division   1.4586  302
        division   1.6594  434
  #      division   1.9508  590
  #      division   2.1708  770
  #      division   2.4268  974
  #      division   3.3577 1202
  #      outer_grid  974
        outer_grid  434
  ################################################################################
  #
  #  Definition of "minimal" basis
  #
  ################################################################################
  #     valence basis states
      valence      6  s   2.
      valence      5  p   6.
      valence      5  d   2.
      valence      4  f  14.
  #     ion occupancy
      ion_occ      6  s   1.
      ion_occ      5  p   6.
      ion_occ      5  d   1.
      ion_occ      4  f  14.
  ################################################################################
  #
  #  Suggested additional basis functions. For production calculations,
  #  uncomment them one after another (the most important basis functions are
  #  listed first).
  #
  #  Constructed for dimers: 1.975, 2.49, 3.25, 4.50 AA
  #
  ################################################################################
  #
  #  "First tier" - improvements: -322.32 meV to -24.16 meV
       hydro 4 f 6
       hydro 3 d 6
       ionic 6 p auto
       hydro 5 g 10.8
       hydro 4 s 4.7
  #  "Second tier" - improvements: -29.31 meV to -1.14 meV
       hydro 5 f 9.6
       ionic 5 d auto
       hydro 6 h 15.2
       hydro 3 p 2.3
       hydro 4 d 6.6
       hydro 3 s 2.1
  #  "Third tier" - max. impr. -1.11 meV, min. impr. - meV
  #     hydro 5 f 6.6
  #     hydro 5 g 11.2
  #     hydro 6 h 17.6
  #     hydro 3 p 3
  #     hydro 5 g 38.8
  #     hydro 4 d 4.9
  #     hydro 1 s 0.5
  #  "Fourth tier" - max. impr. -0.31 meV, min. impr. -0.11 meV
  #     hydro 5 p 12
  #     hydro 5 f 14
  #     hydro 5 f 20.8
  #     hydro 4 s 12.4
  #     hydro 5 d 19.2
  #     hydro 6 h 22
  #  Further functions: -0.14 meV and below.
  #     hydro 5 p 8.6
  #     hydro 4 s 6
  #     hydro 6 d 9.8
  #     hydro 5 f 19.6
  ################################################################################
  #
  #  FHI-aims code project
  # Volker Blum, Fritz Haber Institute Berlin, 2009
  #
  #  Suggested "tight" defaults for S atom (to be pasted into control.in file)
  #
  #  Revised Jan 04, 2011, following tests (SiC) done by Lydia Nemec:
  #     d and g functions of tier 2 now enabled by default.
  #
  ################################################################################
    species        S
  #     global species definitions
      nucleus             16
      mass                32.065
  #
      l_hartree           6
  #
      cut_pot             4.0          2.0  1.0
      basis_dep_cutoff    1e-4
  #
      radial_base         44 7.0
      radial_multiplier   2
      angular_grids       specified
        division   0.4665  110
        division   0.5810  194
        division   0.7139  302
        division   0.8274  434
  #      division   0.9105  590
  #      division   1.0975  770
  #      division   1.2028  974
  #      outer_grid  974
        outer_grid  434
  ################################################################################
  #
  #  Definition of "minimal" basis
  #
  ################################################################################
  #     valence basis states
      valence      3  s   2.
      valence      3  p   4.
  #     ion occupancy
      ion_occ      3  s   1.
      ion_occ      3  p   3.
  ################################################################################
  #
  #  Suggested additional basis functions. For production calculations,
  #  uncomment them one after another (the most important basis functions are
  #  listed first).
  #
  #  Constructed for dimers: 1.6 A, 1.9 A, 2.5 A, 3.25 A, 4.0 A
  #
  ################################################################################
  #  "First tier" - improvements: -652.81 meV to -45.53 meV
       ionic 3 d auto
       hydro 2 p 1.8
       hydro 4 f 7
       ionic 3 s auto
  #  "Second tier" - improvements: -30.20 meV to -1.74 meV
       hydro 4 d 6.2
       hydro 5 g 10.8
       hydro 4 p 4.9
       hydro 5 f 10
       hydro 1 s 0.8
  #  "Third tier" - improvements: -1.04 meV to -0.20 meV
  #     hydro 3 d 3.9
  #     hydro 3 d 2.7
  #     hydro 5 g 12
  #     hydro 4 p 10.4
  #     hydro 5 f 12.4
  #     hydro 2 s 1.9
  #  "Fourth tier" - improvements: -0.35 meV to -0.06 meV
  #     hydro 4 d 10.4
  #     hydro 4 p 7.2
  #     hydro 4 d 10
  #     hydro 5 g 19.2
  #     hydro 4 s 12
  #
  ################################################################################
  #
  # For methods that use the localized form of the "resolution of identity" for
  # the two-electron Coulomb operator (RI_method LVL), particularly Hartree-Fock and
  # hybrid density functional calculations, the highest accuracy can be obtained by
  # uncommenting the line beginning with "for_aux"  below, thus adding an extra g radial
  # function to the construction of the product basis set for the expansion.
  # See Ref. New J. Phys. 17, 093020 (2015) for more information, particularly Figs. 1 and 6.
  #
  ################################################################################
  #
  # for_aux hydro 5 g 6.0
  
  -----------------------------------------------------------------------
  Completed first pass over input file control.in .
  -----------------------------------------------------------------------
  
  
  -----------------------------------------------------------------------
  Parsing geometry.in (first pass over file, find array dimensions only).
  The contents of geometry.in will be repeated verbatim below
  unless switched off by setting 'verbatim_writeout .false.' .
  in the first line of geometry.in .
  -----------------------------------------------------------------------
  
  #=======================================================
  # FHI-aims file: ./geometry.in
  # Created using the Atomic Simulation Environment (ASE)
  # Wed Nov 27 20:14:30 2019
  #=======================================================
  lattice_vector 3.6433658599999998 0.0000000000000000 0.0000000000000000
  lattice_vector -1.8216829299999999 3.1552473900000000 0.0000000000000000
  lattice_vector 0.0000000000000000 0.0000000000000000 6.5844577700000002
  atom 0.0000000000000000 0.0000000000000000 0.0000000000000000 Hf
  atom 1.8216829299999999 1.0517491299999999 1.4449526699999999 S
  atom -0.0000000000000000 2.1034982599999998 5.1395051000000000 S
  
  -----------------------------------------------------------------------
  Completed first pass over input file geometry.in .
  -----------------------------------------------------------------------
  

  Basic array size parameters:
  | Number of species                 :        2
  | Number of atoms                   :        3
  | Number of lattice vectors         :        3
  | Max. basis fn. angular momentum   :        5
  | Max. atomic/ionic basis occupied n:        6
  | Max. number of basis fn. types    :        3
  | Max. radial fns per species/type  :       14
  | Max. logarithmic grid size        :     1480
  | Max. radial integration grid size :      143
  | Max. angular integration grid size:      434
  | Max. angular grid division number :        8
  | Radial grid for Hartree potential :     1480
  | Number of spin channels           :        1

------------------------------------------------------------
          Reading file control.in.
------------------------------------------------------------
  XC: Using PBE gradient-corrected functionals.
  Using the default MBD implementation with analytical forces
  Found k-point grid:        18        18        18
  Scalar relativistic treatment of kinetic energy: on-site free-atom approximation to ZORA.
  S.C.F. convergence parameters will be adjusted in iteration number     2 of the first full s.c.f. cycle only.
  Geometry relaxation: Modified BFGS - TRM (trust radius method, i.e., trusted quadratic extrapolation).
  Convergence accuracy for geometry relaxation: Maximum force <   0.100000E-01 eV/A.
  Spin treatment: No spin polarisation.
 
  Reading configuration options for species Hf                  .
  | Found nuclear charge :  72.0000
  | Found atomic mass :    178.490000000000      amu
  | Found l_max for Hartree potential  :   6
  | Found cutoff potl. onset [A], width [A], scale factor :    4.00000    2.00000    1.00000
  | Threshold for basis-dependent cutoff potential is   0.100000E-03
  | Found data for basic radial integration grid :    71 points, outermost radius =    7.000 A
  | Found multiplier for basic radial grid :   2
  | Found angular grid specification: user-specified.
  | Specified grid contains     6 separate shells.
  | Check grid settings after all constraints further below.
  | Found free-atom valence shell :  6 s   2.000
  | Found free-atom valence shell :  5 p   6.000
  | Found free-atom valence shell :  5 d   2.000
  | Found free-atom valence shell :  4 f  14.000
  | Found free-ion valence shell :  6 s   1.000
  | Found free-ion valence shell :  5 p   6.000
  | Found free-ion valence shell :  5 d   1.000
  | Found free-ion valence shell :  4 f  14.000
  | Found hydrogenic basis function :  4 f   6.000
  | Found hydrogenic basis function :  3 d   6.000
  | Found ionic basis function :  6 p , default cutoff radius.
  | Found hydrogenic basis function :  5 g  10.800
  | Found hydrogenic basis function :  4 s   4.700
  | Found hydrogenic basis function :  5 f   9.600
  | Found ionic basis function :  5 d , default cutoff radius.
  | Found hydrogenic basis function :  6 h  15.200
  | Found hydrogenic basis function :  3 p   2.300
  | Found hydrogenic basis function :  4 d   6.600
  | Found hydrogenic basis function :  3 s   2.100
  Species Hf                  : Missing cutoff potential type.
  Defaulting to exp(1/x)/(1-x)^2 type cutoff potential.
  Species Hf: No 'logarithmic' tag. Using default grid for free atom:
  | Default logarithmic grid data [bohr] : 0.1000E-03 0.1000E+03 0.1012E+01
  | Will include ionic basis functions of  2.0-fold positive Hf                   ion.
  Species Hf: On-site basis accuracy parameter (for Gram-Schmidt orthonormalisation) not specified.
  Using default value basis_acc =  0.1000000E-03.
  Species Hf                  : Using default innermost maximum threshold i_radial=  2 for radial functions.
  Species Hf                  : Default cutoff onset for free atom density etc. : 0.40000000E+01 AA.
  Species Hf                  : Basic radial grid will be enhanced according to radial_multiplier =   2, to contain   143 grid points.
 
  Reading configuration options for species S                   .
  | Found nuclear charge :  16.0000
  | Found atomic mass :    32.0650000000000      amu
  | Found l_max for Hartree potential  :   6
  | Found cutoff potl. onset [A], width [A], scale factor :    4.00000    2.00000    1.00000
  | Threshold for basis-dependent cutoff potential is   0.100000E-03
  | Found data for basic radial integration grid :    44 points, outermost radius =    7.000 A
  | Found multiplier for basic radial grid :   2
  | Found angular grid specification: user-specified.
  | Specified grid contains     5 separate shells.
  | Check grid settings after all constraints further below.
  | Found free-atom valence shell :  3 s   2.000
  | Found free-atom valence shell :  3 p   4.000
  | Found free-ion valence shell :  3 s   1.000
  | Found free-ion valence shell :  3 p   3.000
  | Found ionic basis function :  3 d , default cutoff radius.
  | Found hydrogenic basis function :  2 p   1.800
  | Found hydrogenic basis function :  4 f   7.000
  | Found ionic basis function :  3 s , default cutoff radius.
  | Found hydrogenic basis function :  4 d   6.200
  | Found hydrogenic basis function :  5 g  10.800
  | Found hydrogenic basis function :  4 p   4.900
  | Found hydrogenic basis function :  5 f  10.000
  | Found hydrogenic basis function :  1 s   0.800
  Species S                   : Missing cutoff potential type.
  Defaulting to exp(1/x)/(1-x)^2 type cutoff potential.
  Species S : No 'logarithmic' tag. Using default grid for free atom:
  | Default logarithmic grid data [bohr] : 0.1000E-03 0.1000E+03 0.1012E+01
  | Will include ionic basis functions of  2.0-fold positive S                    ion.
  Species S : On-site basis accuracy parameter (for Gram-Schmidt orthonormalisation) not specified.
  Using default value basis_acc =  0.1000000E-03.
  Species S                   : Using default innermost maximum threshold i_radial=  2 for radial functions.
  Species S                   : Default cutoff onset for free atom density etc. : 0.40000000E+01 AA.
  Species S                   : Basic radial grid will be enhanced according to radial_multiplier =   2, to contain    89 grid points.
  | MBD: Using the same k-grid sampling as DFT
 
  Finished reading input file 'control.in'. Consistency checks are next.
 
  MPI_IN_PLACE appears to work with this MPI implementation.
  | Keeping use_mpi_in_place .true. (see manual).
  Target number of points in a grid batch is not set. Defaulting to  100
  Method for grid partitioning is not set. Defaulting to parallel hash+maxmin partitioning.
  Batch size limit is not set. Defaulting to    200
  By default, will store active basis functions for each batch.
  If in need of memory, prune_basis_once .false. can be used to disable this option.
  communication_type for Hartree potential was not specified.
  Defaulting to calc_hartree .
  Defaulting to Pulay charge density mixer.
  Pulay mixer: Number of relevant iterations not set.
  Defaulting to    8 iterations.
  Pulay mixer: Number of initial linear mixing iterations not set.
  Defaulting to    0 iterations.
  Work space size for distributed Hartree potential not set.
  Defaulting to   0.200000E+03 MB.
  Mixing parameter for charge density mixing has not been set.
  Using default: charge_mix_param =     0.0500.
  The mixing parameter will be adjusted in iteration number     2 of the first full s.c.f. cycle only.
  Algorithm-dependent basis array size parameters:
  | n_max_pulay                         :        8
 * Notice: The s.c.f. convergence criterion sc_accuracy_rho was not provided.
 * We used to stop in this case, and ask the user to provide reasonable
 * scf convergence criteria. However, this led some users to employ criteria
 * that led to extremely long run times, e.g., for simple relaxation.
 * We now preset a default value for sc_accuracy_rho if it is not set.
 * You may still wish to check if this setting is too tight or too loose for your needs.
 * Based on n_atoms, FHI-aims chose sc_accuracy_rho =  0.100000E-05 .
  Maximum number of self-consistency iterations not provided.
  Presetting  1000 iterations.
  Presetting      1001 iterations before the initial mixing cycle
  is restarted anyway using the sc_init_iter criterion / keyword.
  Presetting a factor      1.000 between actual scf density residual
  and density convergence criterion sc_accuracy_rho below which sc_init_iter
  takes no effect.
 * No s.c.f. convergence criteria (sc_accuracy_*) were provided in control.in.
 * The run will proceed with a reasonable default guess, but please check whether.
 * the s.c.f. cycles seem to take too much or too little time.
  No maximum number of relaxation steps, defaulting to     1000
  Default initial Hessian is Lindh matrix (thres = 15.00) plus  0.200000E+01 eV/A^2 times unity.
  No maximum energy tolerance for TRM/BFGS moves, defaulting to   0.200000E-03
  No harmonic length scale. Defaulting to   0.250000E-01 A.
  No trust radius initializer. Defaulting to   0.200000E+00 A.
  Unit cell relaxation: Restricted relaxation with fixed angles between lattice vectors.
  Unit cell relaxation: Analytical stress will be used.
  Analytical stress will be computed.
  Analytical stress calculation: Only the upper triangle is calculated.
                                 Final output is symmetrized.
  Analytical stress calculation: scf convergence accuracy of stress not set.
                                 Analytical stress self-consistency will not be checked explicitly.
                                 Be sure to set other criteria like sc_accuracy_rho tight enough.
  Force calculation: scf convergence accuracy of forces not set.
  Defaulting to 'sc_accuracy_forces not_checked'.
  Handling of forces: Unphysical translation and rotation will be removed from forces.
  No accuracy limit for integral partition fn. given. Defaulting to  0.1000E-14.
  No threshold value for u(r) in integrations given. Defaulting to  0.1000E-05.
  No occupation type (smearing scheme) given. Defaulting to Gaussian broadening, width =  0.1000E-01 eV.
  The width will be adjusted in iteration number     2 of the first full s.c.f. cycle only.
  S.C.F. convergence parameters will be adjusted in iteration number     2 of the first full s.c.f. cycle only.
  No accuracy for occupation numbers given. Defaulting to  0.1000E-12.
  No threshold value for occupation numbers given. Defaulting to  0.0000E+00.
  No accuracy for fermi level given. Defaulting to  0.1000E-19.
  Maximum # of iterations to find E_F not set. Defaulting to  200.
  Preferred method for the eigenvalue solver ('KS_method') not specified in 'control.in'.
  Defaulting to serial version, 'lapack_fast', since more k-points than CPUs available.
  Will not use alltoall communication since running on < 1024 CPUs.
  Threshold for basis singularities not set.
  Default threshold for basis singularities:  0.1000E-04
  partition_type (choice of integration weights) for integrals was not specified.
  | Using a version of the partition function of Stratmann and coworkers ('stratmann_smoother').
  | At each grid point, the set of atoms used to build the partition table is smoothly restricted to
  | only those atoms whose free-atom density would be non-zero at that grid point.
  Partitioning for Hartree potential was not defined. Using partition_type for integrals.
  | Adjusted default value of keyword multip_moments_threshold to:       0.10000000E-11
  | This value may affect high angular momentum components of the Hartree potential in periodic systems.
  Angular momentum expansion for Kerker preconditioner not set explicitly.
  | Using default value of   0
  No explicit requirement for turning off preconditioner.
  | By default, it will be turned off when the charge convergence reaches
  | sc_accuracy_rho  =   0.100000E-05
  No special mixing parameter while Kerker preconditioner is on.
  Using default: charge_mix_param =     0.0500.
  No q(lm)/r^(l+1) cutoff set for long-range Hartree potential.
  | Using default value of  0.100000E-09 .
  | Verify using the multipole_threshold keyword.
  Defaulting to new monopole extrapolation.
  Density update method: automatic selection selected.
  Using density matrix based charge density update.
  Using density matrix based charge density update.
  Using packed matrix style: index .
  Geometry relaxation: A file "geometry.in.next_step" is written out by default after each step.
  | This file contains the geometry of the current relaxation step as well as
  | the current Hessian matrix needed to restart the relaxation algorithm.
  | If you do not want part or all of this information, use the keywords
  | "write_restart_geometry" or "hessian_to_restart_geometry" to switch the output off.
  Defaulting to use time-reversal symmetry for k-point grid.
------------------------------------------------------------


------------------------------------------------------------
          Reading geometry description geometry.in.
------------------------------------------------------------
  Input structure read successfully.
  The structure contains        3 atoms,  and a total of        104.000 electrons.

  Input geometry:
  | Unit cell:
  |        3.64336586        0.00000000        0.00000000
  |       -1.82168293        3.15524739        0.00000000
  |        0.00000000        0.00000000        6.58445777
  | Atomic structure:
  |       Atom                x [A]            y [A]            z [A]
  |    1: Species Hf            0.00000000        0.00000000        0.00000000
  |    2: Species S             1.82168293        1.05174913        1.44495267
  |    3: Species S             0.00000000        2.10349826        5.13950510

  Lattice parameters for 3D lattice (in Angstroms) :     3.643366    3.643366    6.584458
  Angle(s) between unit vectors (in degrees)      :    90.000000   90.000000  120.000000

  |

  | The smallest distance between any two atoms is         2.55197828 AA.
  |
  | The first atom of this pair is atom number                      1 .
  | The second atom of this pair is atom number                     2 .
  | Wigner-Seitz cell of the first atom image           0     1     0 .
  | (The Wigner-Seitz cell of the second atom is 0 0 0  by definition.)

  Quantities derived from the lattice vectors:
  | Reciprocal lattice vector 1:  1.724555  0.995672  0.000000
  | Reciprocal lattice vector 2: -0.000000  1.991345  0.000000
  | Reciprocal lattice vector 3:  0.000000  0.000000  0.954245
  | Unit cell volume                               :   0.756931E+02  A^3

  Range separation radius for Ewald summation (hartree_convergence_parameter):      4.22982478 bohr.

  Fractional coordinates:
                         L1                L2                L3
       atom_frac         0.00000000        0.00000000        0.00000000  Hf
       atom_frac         0.66666667        0.33333333        0.21944900  S
       atom_frac         0.33333333        0.66666667        0.78055100  S

  Number of empty states per atom not set in control.in - providing a guess from actual geometry.
  | Total number of empty states used during s.c.f. cycle:       15
  If you use a very high smearing, use empty_states (per atom!) in control.in to increase this value.

  Structure-dependent array size parameters: 
  | Maximum number of distinct radial functions  :       39
  | Maximum number of basis functions            :      197
  | Number of Kohn-Sham states (occupied + empty):       67
------------------------------------------------------------

------------------------------------------------------------
          Preparing all fixed parts of the calculation.
------------------------------------------------------------
  Determining machine precision:
    2.225073858507201E-308
  Setting up grids for atomic and cluster calculations.

  Creating wave function, potential, and density for free atoms.

  Species: Hf

  List of occupied orbitals and eigenvalues:
    n    l              occ      energy [Ha]    energy [eV]
    1    0           2.0000     -2584.841454    -70337.1147
    2    0           2.0000      -416.409620    -11331.0823
    3    0           2.0000       -93.828152     -2553.1939
    4    0           2.0000       -18.830205      -512.3959
    5    0           2.0000        -2.452388       -66.7329
    6    0           2.0000        -0.182075        -4.9545
    2    1           6.0000      -365.115746     -9935.3049
    3    1           6.0000       -78.772537     -2143.5098
    4    1           6.0000       -13.918099      -378.7307
    5    1           6.0000        -1.297904       -35.3178
    3    2          10.0000       -61.028236     -1660.6628
    4    2          10.0000        -7.585880      -206.4223
    5    2           2.0000        -0.092422        -2.5149
    4    3          14.0000        -0.614647       -16.7254


  Species: S

  List of occupied orbitals and eigenvalues:
    n    l              occ      energy [Ha]    energy [eV]
    1    0           2.0000       -88.680731     -2413.1255
    2    0           2.0000        -7.781719      -211.7513
    3    0           2.0000        -0.633662       -17.2428
    2    1           6.0000        -5.751976      -156.5192
    3    1           4.0000        -0.257086        -6.9957

  Creating fixed part of basis set: Ionic, confined, hydrogenic.
 
  Hf                   ion:

  List of free ionic orbitals and eigenvalues:
    n    l      energy [Ha]    energy [eV]
    1    0     -2585.552822    -70356.4720
    2    0      -417.082963    -11349.4049
    3    0       -94.492979     -2571.2848
    4    0       -19.494122      -530.4620
    5    0        -3.115173       -84.7682
    6    0        -0.684769       -18.6335
    2    1      -365.788271     -9953.6053
    3    1       -79.437124     -2161.5941
    4    1       -14.582223      -396.8025
    5    1        -1.952578       -53.1323
    3    2       -61.692915     -1678.7496
    4    2        -8.250294      -224.5019
    5    2        -0.680962       -18.5299
    4    3        -1.278337       -34.7853


  List of ionic basis orbitals and eigenvalues:
    n    l      energy [Ha]    energy [eV]    outer radius [A]
    6    1        -0.471793       -12.8381       5.450410
    5    2        -0.680950       -18.5296       5.127232

 
  Hf                   hydrogenic:
 
  List of hydrogenic basis orbitals: 
    n    l      effective z      eigenvalue [eV]  inner max. [A]     outer max. [A]     outer radius [A]   
    4    3         6.000000       -30.6116           1.403147           1.403147           5.384184
    3    2         6.000000       -54.4226           0.789894           0.789894           4.165104
    5    4        10.800000       -63.4785           1.226596           1.226596           4.764611
    4    0         4.700000       -18.5431           0.082292           2.748600           5.517450
    5    3         9.600000       -50.1555           0.673827           1.813833           5.384184
    6    5        15.200000       -87.3182           1.256956           1.256956           4.593035
    3    1         2.300000        -7.5446           0.682115           2.649621           5.517450
    4    2         6.600000       -37.0405           0.547383           1.706283           5.384184
    3    0         2.100000        -5.6806           0.186672           2.994169           5.517450
 
 
  S                    ion:

  List of free ionic orbitals and eigenvalues:
    n    l      energy [Ha]    energy [eV]
    1    0       -89.703778     -2440.9640
    2    0        -8.775428      -238.7916
    3    0        -1.470343       -40.0101
    2    1        -6.747660      -183.6132
    3    1        -1.048627       -28.5346


  List of ionic basis orbitals and eigenvalues:
    n    l      energy [Ha]    energy [eV]    outer radius [A]
    3    2        -0.495605       -13.4861       5.386362
    3    0        -1.470336       -40.0099       3.967934

 
  S                    hydrogenic:
 
  List of hydrogenic basis orbitals: 
    n    l      effective z      eigenvalue [eV]  inner max. [A]     outer max. [A]     outer radius [A]   
    2    1         1.800000       -11.0118           1.168531           1.168531           5.452614
    4    3         7.000000       -41.6672           1.212182           1.212182           5.066981
    4    2         6.200000       -32.6848           0.582121           1.814567           5.386362
    5    4        10.800000       -63.4785           1.227092           1.227092           4.766538
    4    1         4.900000       -20.2928           0.304525           2.524192           5.452614
    5    3        10.000000       -54.4226           0.641929           1.727969           5.320915
    1    0         0.800000        -8.7059           0.657818           0.657818           5.386362
 

  Adding cutoff potential to free-atom effective potential.
  Creating atomic-like basis functions for current effective potential.

  Species Hf                  :

  List of atomic basis orbitals and eigenvalues:
    n    l      energy [Ha]    energy [eV]    outer radius [A]
    1    0     -2584.841454    -70337.1147       0.135843
    2    0      -416.409620    -11331.0823       0.352500
    3    0       -93.828152     -2553.1939       0.752197
    4    0       -18.830205      -512.3959       1.605110
    5    0        -2.452388       -66.7329       4.165104
    6    0        -0.182075        -4.9545       5.450410
    2    1      -365.115746     -9935.3049       0.370165
    3    1       -78.772537     -2143.5098       0.799610
    4    1       -13.918099      -378.7307       1.813833
    5    1        -1.297904       -35.3178       4.942597
    3    2       -61.028236     -1660.6628       0.860465
    4    2        -7.585880      -206.4223       2.316232
    5    2        -0.092422        -2.5149       5.450410
    4    3        -0.614647       -16.7254       5.003391


  Species S                   :

  List of atomic basis orbitals and eigenvalues:
    n    l      energy [Ha]    energy [eV]    outer radius [A]
    1    0       -88.680731     -2413.1255       0.682391
    2    0        -7.781719      -211.7513       2.289014
    3    0        -0.633662       -17.2428       5.256262
    2    1        -5.751976      -156.5192       2.555240
    3    1        -0.257086        -6.9957       5.386362

  Assembling full basis from fixed parts.
  | Species Hf :   atomic orbital   1 s accepted.
  | Species Hf :   atomic orbital   2 s accepted.
  | Species Hf :   atomic orbital   3 s accepted.
  | Species Hf :   atomic orbital   4 s accepted.
  | Species Hf :   atomic orbital   5 s accepted.
  | Species Hf :   atomic orbital   6 s accepted.
  | Species Hf :    hydro orbital   4 s accepted.
  | Species Hf :    hydro orbital   3 s accepted.
  | Species Hf :   atomic orbital   2 p accepted.
  | Species Hf :   atomic orbital   3 p accepted.
  | Species Hf :   atomic orbital   4 p accepted.
  | Species Hf :   atomic orbital   5 p accepted.
  | Species Hf :    ionic orbital   6 p accepted.
  | Species Hf :    hydro orbital   3 p accepted.
  | Species Hf :   atomic orbital   3 d accepted.
  | Species Hf :   atomic orbital   4 d accepted.
  | Species Hf :    hydro orbital   3 d accepted.
  | Species Hf :    ionic orbital   5 d accepted.
  | Species Hf :    hydro orbital   4 d accepted.
  | Species Hf :   atomic orbital   5 d accepted.
  | Species Hf :   atomic orbital   4 f accepted.
  | Species Hf :    hydro orbital   4 f accepted.
  | Species Hf :    hydro orbital   5 f accepted.
  | Species Hf :    hydro orbital   5 g accepted.
  | Species Hf :    hydro orbital   6 h accepted.
  | Species S :   atomic orbital   1 s accepted.
  | Species S :   atomic orbital   2 s accepted.
  | Species S :    ionic orbital   3 s accepted.
  | Species S :   atomic orbital   3 s accepted.
  | Species S :    hydro orbital   1 s accepted.
  | Species S :   atomic orbital   2 p accepted.
  | Species S :   atomic orbital   3 p accepted.
  | Species S :    hydro orbital   2 p accepted.
  | Species S :    hydro orbital   4 p accepted.
  | Species S :    ionic orbital   3 d accepted.
  | Species S :    hydro orbital   4 d accepted.
  | Species S :    hydro orbital   4 f accepted.
  | Species S :    hydro orbital   5 f accepted.
  | Species S :    hydro orbital   5 g accepted.
 
  Basis size parameters after reduction:
  | Total number of radial functions:       39
  | Total number of basis functions :      197
 
  Per-task memory consumption for arrays in subroutine allocate_ext:
  |          14.783192MB.
  Testing on-site integration grid accuracy.
  |  Species  Function  <phi|h_atom|phi> (log., in eV)  <phi|h_atom|phi> (rad., in eV)
           1        1             -70337.1146698938             -70337.1000195033
           1        2             -11331.0822838340             -11331.0819974324
           1        3              -2553.1939241433              -2553.1939033442
           1        4               -512.3959483215               -512.3959435004
           1        5                -66.7328606804                -66.7328595152
           1        6                 -4.9609826843                 -4.9609662995
           1        7                  4.4947479361                  4.4949913073
           1        8                 28.7527526448                 28.7552191400
           1        9              -9935.3049395807              -9935.3049326924
           1       10              -2143.5097894823              -2143.5097845624
           1       11               -378.7307348171               -378.7307317592
           1       12                -35.3177612045                -35.3177605023
           1       13                 -0.3051418017                 -0.3051279404
           1       14                  8.1710841034                  8.1714360954
           1       15              -1660.6627840964              -1660.6627822102
           1       16               -206.4223091258               -206.4223074349
           1       17                 -1.1108014108                 -1.1108011651
           1       18                  9.2663821216                  9.2663821089
           1       19                 53.6250270951                 53.6250287567
           1       20                 31.5406305910                 31.5416476097
           1       21                -16.7254068200                -16.7254064907
           1       22                 13.9532729765                 13.9532741914
           1       23                 48.0813797185                 48.0813797916
           1       24                 39.4113660380                 39.4113660061
           1       25                 65.3093031931                 65.3093031256
           2       26              -2413.1254568977              -2413.1254096663
           2       27               -211.7513411281               -211.7513404762
           2       28                -16.9725280787                -16.9725279206
           2       29                  7.6024436204                  7.6024549059
           2       30                 48.5754986812                 48.5751292874
           2       31               -156.5192206929               -156.5192205451
           2       32                 -6.9959757887                 -6.9959777655
           2       33                  6.8896462808                  6.8895564741
           2       34                 27.2255287135                 27.2252601701
           2       35                  6.0214250550                  6.0214220200
           2       36                 19.6206468977                 19.6206494558
           2       37                 24.7008710786                 24.7008710738
           2       38                 58.2239314521                 58.2239319465
           2       39                 47.5292252001                 47.5292260486

  Preparing densities etc. for the partition functions (integrals / Hartree potential).

  Preparations completed.
  max(cpu_time)          :      0.628 s.
  Wall clock time (cpu1) :      0.627 s.
------------------------------------------------------------

------------------------------------------------------------
          Begin self-consistency loop: Initialization.

          Date     :  20191127, Time     :  203508.810
------------------------------------------------------------

  Initializing index lists of integration centers etc. from given atomic structure:
  Mapping all atomic coordinates to central unit cell.

  Initializing the k-points
          Using symmetry for reducing the k-points
  | k-points reduced from:     5832 to     2920
  | Number of k-points                             :      2920
  The eigenvectors in the calculations are COMPLEX.
  | K-points in task   0:        36
  | K-points in task   1:        37
  | K-points in task   2:        37
  | K-points in task   3:        37
  | K-points in task   4:        37
  | K-points in task   5:        37
  | K-points in task   6:        37
  | K-points in task   7:        37
  | K-points in task   8:        37
  | K-points in task   9:        37
  | K-points in task  10:        37
  | K-points in task  11:        37
  | K-points in task  12:        37
  | K-points in task  13:        37
  | K-points in task  14:        37
  | K-points in task  15:        37
  | K-points in task  16:        37
  | K-points in task  17:        37
  | K-points in task  18:        37
  | K-points in task  19:        37
  | K-points in task  20:        37
  | K-points in task  21:        37
  | K-points in task  22:        37
  | K-points in task  23:        37
  | K-points in task  24:        37
  | K-points in task  25:        37
  | K-points in task  26:        37
  | K-points in task  27:        37
  | K-points in task  28:        37
  | K-points in task  29:        37
  | K-points in task  30:        37
  | K-points in task  31:        37
  | K-points in task  32:        37
  | K-points in task  33:        37
  | K-points in task  34:        37
  | K-points in task  35:        37
  | K-points in task  36:        37
  | K-points in task  37:        37
  | K-points in task  38:        37
  | K-points in task  39:        37
  | K-points in task  40:        37
  | K-points in task  41:        36
  | K-points in task  42:        36
  | K-points in task  43:        36
  | K-points in task  44:        36
  | K-points in task  45:        36
  | K-points in task  46:        36
  | K-points in task  47:        36
  | K-points in task  48:        36
  | K-points in task  49:        36
  | K-points in task  50:        36
  | K-points in task  51:        36
  | K-points in task  52:        36
  | K-points in task  53:        36
  | K-points in task  54:        36
  | K-points in task  55:        36
  | K-points in task  56:        36
  | K-points in task  57:        36
  | K-points in task  58:        36
  | K-points in task  59:        36
  | K-points in task  60:        36
  | K-points in task  61:        36
  | K-points in task  62:        36
  | K-points in task  63:        36
  | K-points in task  64:        36
  | K-points in task  65:        36
  | K-points in task  66:        36
  | K-points in task  67:        36
  | K-points in task  68:        36
  | K-points in task  69:        36
  | K-points in task  70:        36
  | K-points in task  71:        36
  | K-points in task  72:        36
  | K-points in task  73:        36
  | K-points in task  74:        36
  | K-points in task  75:        36
  | K-points in task  76:        36
  | K-points in task  77:        36
  | K-points in task  78:        36
  | K-points in task  79:        36
  | Number of basis functions in the Hamiltonian integrals :      6123
  | Number of basis functions in a single unit cell        :       197
  | Number of centers in hartree potential         :       871
  | Number of centers in hartree multipole         :       429
  | Number of centers in electron density summation:       303
  | Number of centers in basis integrals           :       327
  | Number of centers in integrals                 :       153
  | Number of centers in hamiltonian               :       303
  | Consuming       5840 KiB for k_phase.
  | Number of super-cells (origin) [n_cells]                     :        1183
  | Number of super-cells (after PM_index) [n_cells]             :         128
  | Number of super-cells in hamiltonian [n_cells_in_hamiltonian]:         128
  | Size of matrix packed + index [n_hamiltonian_matrix_size] :     1022505
  Initializing relaxation algorithms.
  Partitioning the integration grid into batches with parallel hashing+maxmin method.
  | Number of batches:      918
  | Maximal batch size:     114
  | Minimal batch size:      51
  | Average batch size:      82.987
  | Standard deviation of batch sizes:      11.064

  Integration load balanced across    80 MPI tasks.
  Work distribution over tasks is as follows:
  Task     0 has        967 integration points.
  Task     1 has        907 integration points.
  Task     2 has        915 integration points.
  Task     3 has        975 integration points.
  Task     4 has        961 integration points.
  Task     5 has        918 integration points.
  Task     6 has        934 integration points.
  Task     7 has        970 integration points.
  Task     8 has        921 integration points.
  Task     9 has        911 integration points.
  Task    10 has        957 integration points.
  Task    11 has        944 integration points.
  Task    12 has        970 integration points.
  Task    13 has        960 integration points.
  Task    14 has        970 integration points.
  Task    15 has        957 integration points.
  Task    16 has        973 integration points.
  Task    17 has        912 integration points.
  Task    18 has        958 integration points.
  Task    19 has        961 integration points.
  Task    20 has        964 integration points.
  Task    21 has        915 integration points.
  Task    22 has        905 integration points.
  Task    23 has        940 integration points.
  Task    24 has        915 integration points.
  Task    25 has        990 integration points.
  Task    26 has        955 integration points.
  Task    27 has        954 integration points.
  Task    28 has        973 integration points.
  Task    29 has        967 integration points.
  Task    30 has        956 integration points.
  Task    31 has        957 integration points.
  Task    32 has        972 integration points.
  Task    33 has        934 integration points.
  Task    34 has        992 integration points.
  Task    35 has        974 integration points.
  Task    36 has        914 integration points.
  Task    37 has        956 integration points.
  Task    38 has        943 integration points.
  Task    39 has        915 integration points.
  Task    40 has        988 integration points.
  Task    41 has        963 integration points.
  Task    42 has        950 integration points.
  Task    43 has        932 integration points.
  Task    44 has        975 integration points.
  Task    45 has        969 integration points.
  Task    46 has        967 integration points.
  Task    47 has        925 integration points.
  Task    48 has        934 integration points.
  Task    49 has        976 integration points.
  Task    50 has        934 integration points.
  Task    51 has        990 integration points.
  Task    52 has        917 integration points.
  Task    53 has        938 integration points.
  Task    54 has        953 integration points.
  Task    55 has        954 integration points.
  Task    56 has        971 integration points.
  Task    57 has        955 integration points.
  Task    58 has        965 integration points.
  Task    59 has        973 integration points.
  Task    60 has        917 integration points.
  Task    61 has        958 integration points.
  Task    62 has        993 integration points.
  Task    63 has        965 integration points.
  Task    64 has        937 integration points.
  Task    65 has        972 integration points.
  Task    66 has        950 integration points.
  Task    67 has        919 integration points.
  Task    68 has        938 integration points.
  Task    69 has        988 integration points.
  Task    70 has        968 integration points.
  Task    71 has        925 integration points.
  Task    72 has        987 integration points.
  Task    73 has        969 integration points.
  Task    74 has        970 integration points.
  Task    75 has        916 integration points.
  Task    76 has        985 integration points.
  Task    77 has        958 integration points.
  Task    78 has        936 integration points.
  Task    79 has        970 integration points.
  Initializing partition tables, free-atom densities, potentials, etc. across the integration grid (initialize_grid_storage).
  | initialize_grid_storage: Actual outermost partition radius vs. multipole_radius_free
  | (-- VB: in principle, multipole_radius_free should be larger, hence this output)
  | Species        1: Confinement radius =              6.000000000000000 AA, multipole_radius_free =              6.010396164504727 AA.
  | Species        1: outer_partition_radius set to              6.010396164504727 AA .
  | Species        2: Confinement radius =              6.000000000000000 AA, multipole_radius_free =              6.012827091137924 AA.
  | Species        2: outer_partition_radius set to              6.012827091137924 AA .
  | Original list of interatomic distances with         327 x        327 entries is created.
  | Net number of integration points:    76182
  | of which are non-zero points    :    62100
  | Numerical average free-atom electrostatic potential    :    -14.50333527 eV
  Renormalizing the initial density to the exact electron count on the 3D integration grid.
  | Initial density: Formal number of electrons (from input files) :     104.0000000000
  | Integrated number of electrons on 3D grid     :     103.9999590306
  | Charge integration error                      :      -0.0000409694
  | Normalization factor for density and gradient :       1.0000003939
  Obtaining max. number of non-zero basis functions in each batch (get_n_compute_maxes).
  | Maximal number of non-zero basis functions:     1793 in task     0
  | Maximal number of non-zero basis functions:     1873 in task     1
  | Maximal number of non-zero basis functions:     1943 in task     2
  | Maximal number of non-zero basis functions:     1997 in task     3
  | Maximal number of non-zero basis functions:     1820 in task     4
  | Maximal number of non-zero basis functions:     1923 in task     5
  | Maximal number of non-zero basis functions:     1955 in task     6
  | Maximal number of non-zero basis functions:     1995 in task     7
  | Maximal number of non-zero basis functions:     1910 in task     8
  | Maximal number of non-zero basis functions:     1833 in task     9
  | Maximal number of non-zero basis functions:     1939 in task    10
  | Maximal number of non-zero basis functions:     1818 in task    11
  | Maximal number of non-zero basis functions:     1806 in task    12
  | Maximal number of non-zero basis functions:     1757 in task    13
  | Maximal number of non-zero basis functions:     1697 in task    14
  | Maximal number of non-zero basis functions:     1853 in task    15
  | Maximal number of non-zero basis functions:     1791 in task    16
  | Maximal number of non-zero basis functions:     1864 in task    17
  | Maximal number of non-zero basis functions:     1870 in task    18
  | Maximal number of non-zero basis functions:     1746 in task    19
  | Maximal number of non-zero basis functions:     1835 in task    20
  | Maximal number of non-zero basis functions:     1759 in task    21
  | Maximal number of non-zero basis functions:     1821 in task    22
  | Maximal number of non-zero basis functions:     1760 in task    23
  | Maximal number of non-zero basis functions:     1768 in task    24
  | Maximal number of non-zero basis functions:     1769 in task    25
  | Maximal number of non-zero basis functions:     1809 in task    26
  | Maximal number of non-zero basis functions:     1753 in task    27
  | Maximal number of non-zero basis functions:     1887 in task    28
  | Maximal number of non-zero basis functions:     1803 in task    29
  | Maximal number of non-zero basis functions:     1760 in task    30
  | Maximal number of non-zero basis functions:     1866 in task    31
  | Maximal number of non-zero basis functions:     2011 in task    32
  | Maximal number of non-zero basis functions:     1703 in task    33
  | Maximal number of non-zero basis functions:     1897 in task    34
  | Maximal number of non-zero basis functions:     1824 in task    35
  | Maximal number of non-zero basis functions:     1712 in task    36
  | Maximal number of non-zero basis functions:     1709 in task    37
  | Maximal number of non-zero basis functions:     1937 in task    38
  | Maximal number of non-zero basis functions:     1950 in task    39
  | Maximal number of non-zero basis functions:     1838 in task    40
  | Maximal number of non-zero basis functions:     1801 in task    41
  | Maximal number of non-zero basis functions:     1908 in task    42
  | Maximal number of non-zero basis functions:     1935 in task    43
  | Maximal number of non-zero basis functions:     1837 in task    44
  | Maximal number of non-zero basis functions:     1898 in task    45
  | Maximal number of non-zero basis functions:     1807 in task    46
  | Maximal number of non-zero basis functions:     1913 in task    47
  | Maximal number of non-zero basis functions:     1853 in task    48
  | Maximal number of non-zero basis functions:     1847 in task    49
  | Maximal number of non-zero basis functions:     1772 in task    50
  | Maximal number of non-zero basis functions:     1919 in task    51
  | Maximal number of non-zero basis functions:     1818 in task    52
  | Maximal number of non-zero basis functions:     1854 in task    53
  | Maximal number of non-zero basis functions:     1764 in task    54
  | Maximal number of non-zero basis functions:     1809 in task    55
  | Maximal number of non-zero basis functions:     1980 in task    56
  | Maximal number of non-zero basis functions:     1795 in task    57
  | Maximal number of non-zero basis functions:     1808 in task    58
  | Maximal number of non-zero basis functions:     1824 in task    59
  | Maximal number of non-zero basis functions:     1798 in task    60
  | Maximal number of non-zero basis functions:     1818 in task    61
  | Maximal number of non-zero basis functions:     1904 in task    62
  | Maximal number of non-zero basis functions:     1930 in task    63
  | Maximal number of non-zero basis functions:     1802 in task    64
  | Maximal number of non-zero basis functions:     1776 in task    65
  | Maximal number of non-zero basis functions:     1922 in task    66
  | Maximal number of non-zero basis functions:     1978 in task    67
  | Maximal number of non-zero basis functions:     1773 in task    68
  | Maximal number of non-zero basis functions:     1762 in task    69
  | Maximal number of non-zero basis functions:     1956 in task    70
  | Maximal number of non-zero basis functions:     1925 in task    71
  | Maximal number of non-zero basis functions:     1866 in task    72
  | Maximal number of non-zero basis functions:     1863 in task    73
  | Maximal number of non-zero basis functions:     1900 in task    74
  | Maximal number of non-zero basis functions:     1909 in task    75
  | Maximal number of non-zero basis functions:     1861 in task    76
  | Maximal number of non-zero basis functions:     1817 in task    77
  | Maximal number of non-zero basis functions:     1767 in task    78
  | Maximal number of non-zero basis functions:     1811 in task    79
  Allocating        7.603 MB for KS_eigenvector_complex
  Integrating Hamiltonian matrix: batch-based integration.
  Time summed over all CPUs for integration: real work       32.462 s, elapsed       35.265 s
  Integrating overlap matrix.
  Time summed over all CPUs for integration: real work       24.207 s, elapsed       26.882 s
  Decreasing sparse matrix size:
   Tolerance:  9.999999824516700E-014
   Hamiltonian matrix
  | Array has   832977 nonzero elements out of  1022505 elements
  | Sparsity factor is 0.185
   Overlap matrix
  | Array has   774786 nonzero elements out of  1022505 elements
  | Sparsity factor is 0.242
  New size of hamiltonian matrix:      837723

  Updating Kohn-Sham eigenvalues and eigenvectors using ELSI and the ELPA eigensolver.
  Overlap matrix is nonsingular
  | Lowest eigenvalue of overlap  :  0.57E-04
  | Highest eigenvalue of overlap :  0.93E+01
  Finished singularity check of overlap matrix
  | Time :     0.005 s
  Finished Cholesky decomposition
  | Time :     0.002 s
  Finished transformation to standard eigenproblem
  | Time :     0.002 s
  Starting LAPACK eigensolver
  Finished solving standard eigenproblem
  | Time :     0.006 s
  Finished back-transformation of eigenvectors
  | Time :     0.000 s

  Obtaining occupation numbers and chemical potential using ELSI.
  | Chemical potential (Fermi level):    -7.57687166eV
  Writing Kohn-Sham eigenvalues.
  K-point:       1 at    0.000000    0.000000    0.000000 (in units of recip. lattice)

  State    Occupation    Eigenvalue [Ha]    Eigenvalue [eV]
      1       2.00000       -2584.851869       -70337.39808
      2       2.00000        -416.418544       -11331.32512
      3       2.00000        -365.124471        -9935.54237
      4       2.00000        -365.124471        -9935.54237
      5       2.00000        -365.124465        -9935.54220
      6       2.00000         -93.837116        -2553.43786
      7       2.00000         -88.710335        -2413.93104
      8       2.00000         -88.710335        -2413.93104
      9       2.00000         -78.781476        -2143.75302
     10       2.00000         -78.781476        -2143.75302
     11       2.00000         -78.781436        -2143.75195
     12       2.00000         -61.037137        -1660.90502
     13       2.00000         -61.037137        -1660.90502
     14       2.00000         -61.037114        -1660.90439
     15       2.00000         -61.037114        -1660.90439
     16       2.00000         -61.037106        -1660.90415
     17       2.00000         -18.840075         -512.66451
     18       2.00000         -13.928214         -379.00600
     19       2.00000         -13.928214         -379.00600
     20       2.00000         -13.927979         -378.99958
     21       2.00000          -7.814081         -212.63196
     22       2.00000          -7.814081         -212.63195
     23       2.00000          -7.596335         -206.70678
     24       2.00000          -7.596335         -206.70678
     25       2.00000          -7.596138         -206.70143
     26       2.00000          -7.596138         -206.70143
     27       2.00000          -7.596031         -206.69852
     28       2.00000          -5.784060         -157.39229
     29       2.00000          -5.784060         -157.39229
     30       2.00000          -5.784060         -157.39229
     31       2.00000          -5.784060         -157.39229
     32       2.00000          -5.783954         -157.38939
     33       2.00000          -5.783954         -157.38938
     34       2.00000          -2.471064          -67.24108
     35       2.00000          -1.324778          -36.04903
     36       2.00000          -1.322883          -35.99748
     37       2.00000          -1.322883          -35.99748
     38       2.00000          -0.752796          -20.48462
     39       2.00000          -0.703613          -19.14627
     40       2.00000          -0.628196          -17.09408
     41       2.00000          -0.628196          -17.09407
     42       2.00000          -0.627148          -17.06556
     43       2.00000          -0.626739          -17.05443
     44       2.00000          -0.626651          -17.05203
     45       2.00000          -0.626651          -17.05203
     46       2.00000          -0.625481          -17.02021
     47       2.00000          -0.421644          -11.47353
     48       2.00000          -0.362971           -9.87693
     49       2.00000          -0.362971           -9.87693
     50       2.00000          -0.293611           -7.98955
     51       2.00000          -0.279753           -7.61247
     52       2.00000          -0.279753           -7.61246
     53       0.00000          -0.158433           -4.31118
     54       0.00000          -0.158433           -4.31118
     55       0.00000          -0.136366           -3.71070
     56       0.00000          -0.068636           -1.86768
     57       0.00000          -0.041213           -1.12146
     58       0.00000          -0.041212           -1.12144
     59       0.00000          -0.037063           -1.00852
     60       0.00000           0.096002            2.61234
     61       0.00000           0.096004            2.61239
     62       0.00000           0.117111            3.18676
     63       0.00000           0.209321            5.69592
     64       0.00000           0.250114            6.80594
     65       0.00000           0.251362            6.83992
     66       0.00000           0.251363            6.83994
     67       0.00000           0.274384            7.46638

  What follows are estimated values for band gap, HOMO, LUMO, etc.
  | They are estimated on a discrete k-point grid and not necessarily exact.
  | For converged numbers, create a DOS and/or band structure plot on a denser k-grid.

  Highest occupied state (VBM) at     -7.61246425 eV (relative to internal zero)
  | Occupation number:      1.99999952
  | K-point:       1 at    0.000000    0.000000    0.000000 (in units of recip. lattice)

  Lowest unoccupied state (CBM) at    -5.38510275 eV (relative to internal zero)
  | Occupation number:      0.00000000
  | K-point:     126 at    0.000000    0.500000    0.500000 (in units of recip. lattice)

  ESTIMATED overall HOMO-LUMO gap:      2.22736149 eV between HOMO at k-point 1 and LUMO at k-point 126
  | This appears to be an indirect band gap.
  | Smallest direct gap :      3.02174000 eV for k_point 75 at    0.000000    0.500000    0.500000 (in units of recip. lattice)
  The gap value is above 0.2 eV. Unless you are using a very sparse k-point grid,
  this system is most likely an insulator or a semiconductor.
  Calculating total energy contributions from superposition of free atom densities.

  Total energy components:
  | Sum of eigenvalues            :      -10145.53329132 Ha     -276074.00734758 eV
  | XC energy correction          :        -363.01507905 Ha       -9878.14289530 eV
  | XC potential correction       :         473.91122093 Ha       12895.78045158 eV
  | Free-atom electrostatic energy:       -6277.61631149 Ha     -170822.63119531 eV
  | Hartree energy correction     :           0.00000000 Ha           0.00000000 eV
  | Entropy correction            :          -0.00000000 Ha          -0.00000000 eV
  | ---------------------------
  | Total energy                  :      -16312.25346092 Ha     -443879.00098660 eV
  | Total energy, T -> 0          :      -16312.25346092 Ha     -443879.00098660 eV  <-- do not rely on this value for anything but (periodic) metals
  | Electronic free energy        :      -16312.25346092 Ha     -443879.00098660 eV

  Derived energy quantities:
  | Kinetic energy                :       17830.72905525 Ha      485198.82423779 eV
  | Electrostatic energy          :      -33779.96743713 Ha     -919199.68232909 eV
  | Energy correction for multipole
  | error in Hartree potential    :           0.00000000 Ha           0.00000000 eV
  | Sum of eigenvalues per atom                           :      -92024.66911586 eV
  | Total energy (T->0) per atom                          :     -147959.66699553 eV  <-- do not rely on this value for anything but (periodic) metals
  | Electronic free energy per atom                       :     -147959.66699553 eV
  Initialize hartree_potential_storage
  Max. number of atoms included in rho_multipole:            3

  End scf initialization - timings             :  max(cpu_time)    wall_clock(cpu1)
  | Time for scf. initialization               :        2.792 s           2.788 s
  | Boundary condition initialization          :        0.292 s           0.290 s
  | Relaxation initialization                  :        0.004 s           0.001 s
  | Integration                                :        1.112 s           1.110 s
  | Solution of K.-S. eqns.                    :        1.196 s           1.192 s
  | Grid partitioning                          :        0.088 s           0.086 s
  | Preloading free-atom quantities on grid    :        0.016 s           0.012 s
  | Free-atom superposition energy             :        0.008 s           0.006 s
  | Total energy evaluation                    :        0.008 s           0.006 s

  Partial memory accounting:
  | Current value for overall tracked memory usage on task 0  :          24.358 MB
  | Peak value for overall tracked memory usage on task 0     :          58.721 MB after allocating wave
  | Largest tracked array allocation on task 0 so far         :          25.719 MB  when allocating hamiltonian_shell
  Note:  These values currently only include a subset of arrays which are explicitly tracked.
  The "true" memory usage will be greater.
------------------------------------------------------------

------------------------------------------------------------
          Begin self-consistency iteration #    1

  Date     :  20191127, Time     :  203511.598
------------------------------------------------------------
  Evaluating new KS density using the density matrix
  Evaluating density matrix
  Time summed over all CPUs for getting density from density matrix: real work       68.546 s, elapsed       74.776 s
  Integration grid: deviation in total charge (<rho> - N_e) =  -3.794582E-10
  Pulay mixing of updated and previous charge densities.

  Evaluating partitioned Hartree potential by multipole expansion.
  | Analytical far-field extrapolation by fixed multipoles:
  | Hartree multipole sum: apparent total charge =   0.307597E-03
  Summing up the Hartree potential.
  | Estimated reciprocal-space cutoff momentum G_max:         2.28430963 bohr^-1 .
  | Reciprocal lattice points for long-range Hartree potential:     110
  Time summed over all CPUs for potential: real work        5.297 s, elapsed        5.762 s
  | RMS charge density error from multipole expansion :   0.271297E-03
  | Average real-space part of the electrostatic potential :      0.01441365 eV

  Integrating Hamiltonian matrix: batch-based integration.
  Time summed over all CPUs for integration: real work       30.889 s, elapsed       33.543 s

  Updating Kohn-Sham eigenvalues and eigenvectors using ELSI and the ELPA eigensolver.
  Finished Cholesky decomposition
  | Time :     0.001 s
  Finished transformation to standard eigenproblem
  | Time :     0.002 s
  Starting LAPACK eigensolver
  Finished solving standard eigenproblem
  | Time :     0.006 s
  Finished back-transformation of eigenvectors
  | Time :     0.000 s

  Obtaining occupation numbers and chemical potential using ELSI.
  | Chemical potential (Fermi level):    -7.50992463eV
  Writing Kohn-Sham eigenvalues.
  K-point:       1 at    0.000000    0.000000    0.000000 (in units of recip. lattice)

  State    Occupation    Eigenvalue [Ha]    Eigenvalue [eV]
      1       2.00000       -2584.860014       -70337.61973
      2       2.00000        -416.426654       -11331.54581
      3       2.00000        -365.132596        -9935.76346
      4       2.00000        -365.132596        -9935.76346
      5       2.00000        -365.132590        -9935.76331
      6       2.00000         -93.844757        -2553.64578
      7       2.00000         -88.702856        -2413.72753
      8       2.00000         -88.702856        -2413.72753
      9       2.00000         -78.789114        -2143.96087
     10       2.00000         -78.789114        -2143.96087
     11       2.00000         -78.789073        -2143.95976
     12       2.00000         -61.044860        -1661.11514
     13       2.00000         -61.044860        -1661.11514
     14       2.00000         -61.044834        -1661.11445
     15       2.00000         -61.044834        -1661.11445
     16       2.00000         -61.044828        -1661.11428
     17       2.00000         -18.846626         -512.84277
     18       2.00000         -13.934635         -379.18072
     19       2.00000         -13.934635         -379.18072
     20       2.00000         -13.934441         -379.17542
     21       2.00000          -7.808247         -212.47320
     22       2.00000          -7.808247         -212.47320
     23       2.00000          -7.602608         -206.87748
     24       2.00000          -7.602608         -206.87748
     25       2.00000          -7.602448         -206.87314
     26       2.00000          -7.602448         -206.87314
     27       2.00000          -7.602373         -206.87110
     28       2.00000          -5.778084         -157.22966
     29       2.00000          -5.778084         -157.22966
     30       2.00000          -5.778084         -157.22966
     31       2.00000          -5.778084         -157.22966
     32       2.00000          -5.777977         -157.22675
     33       2.00000          -5.777977         -157.22675
     34       2.00000          -2.475427          -67.35979
     35       2.00000          -1.328589          -36.15274
     36       2.00000          -1.326453          -36.09462
     37       2.00000          -1.326453          -36.09462
     38       2.00000          -0.750192          -20.41378
     39       2.00000          -0.701146          -19.07916
     40       2.00000          -0.633969          -17.25118
     41       2.00000          -0.633969          -17.25116
     42       2.00000          -0.632959          -17.22368
     43       2.00000          -0.632540          -17.21230
     44       2.00000          -0.632527          -17.21193
     45       2.00000          -0.632527          -17.21193
     46       2.00000          -0.631043          -17.17154
     47       2.00000          -0.420402          -11.43972
     48       2.00000          -0.361361           -9.83313
     49       2.00000          -0.361361           -9.83312
     50       2.00000          -0.291156           -7.92276
     51       2.00000          -0.277292           -7.54551
     52       2.00000          -0.277292           -7.54551
     53       0.00000          -0.159412           -4.33782
     54       0.00000          -0.159412           -4.33781
     55       0.00000          -0.137464           -3.74059
     56       0.00000          -0.067637           -1.84050
     57       0.00000          -0.041232           -1.12199
     58       0.00000          -0.041232           -1.12197
     59       0.00000          -0.036393           -0.99030
     60       0.00000           0.096856            2.63560
     61       0.00000           0.096858            2.63564
     62       0.00000           0.118493            3.22437
     63       0.00000           0.209722            5.70682
     64       0.00000           0.250255            6.80978
     65       0.00000           0.252875            6.88107
     66       0.00000           0.252875            6.88109
     67       0.00000           0.274638            7.47327

  What follows are estimated values for band gap, HOMO, LUMO, etc.
  | They are estimated on a discrete k-point grid and not necessarily exact.
  | For converged numbers, create a DOS and/or band structure plot on a denser k-grid.

  Highest occupied state (VBM) at     -7.54550823 eV (relative to internal zero)
  | Occupation number:      1.99999952
  | K-point:       1 at    0.000000    0.000000    0.000000 (in units of recip. lattice)

  Lowest unoccupied state (CBM) at    -5.39781794 eV (relative to internal zero)
  | Occupation number:      0.00000000
  | K-point:     126 at    0.000000    0.500000    0.500000 (in units of recip. lattice)

  ESTIMATED overall HOMO-LUMO gap:      2.14769028 eV between HOMO at k-point 1 and LUMO at k-point 126
  | This appears to be an indirect band gap.
  | Smallest direct gap :      2.94596518 eV for k_point 75 at    0.000000    0.500000    0.500000 (in units of recip. lattice)
  The gap value is above 0.2 eV. Unless you are using a very sparse k-point grid,
  this system is most likely an insulator or a semiconductor.

  Total energy components:
  | Sum of eigenvalues            :      -10145.82293004 Ha     -276081.88881836 eV
  | XC energy correction          :        -363.01669932 Ha       -9878.18698520 eV
  | XC potential correction       :         473.91286136 Ha       12895.82508986 eV
  | Free-atom electrostatic energy:       -6277.61631149 Ha     -170822.63119531 eV
  | Hartree energy correction     :           0.29485731 Ha           8.02347562 eV
  | Entropy correction            :          -0.00000000 Ha          -0.00000000 eV
  | ---------------------------
  | Total energy                  :      -16312.24822219 Ha     -443878.85843339 eV
  | Total energy, T -> 0          :      -16312.24822219 Ha     -443878.85843339 eV  <-- do not rely on this value for anything but (periodic) metals
  | Electronic free energy        :      -16312.24822219 Ha     -443878.85843339 eV

  Derived energy quantities:
  | Kinetic energy                :       17830.67895804 Ha      485197.46102322 eV
  | Electrostatic energy          :      -33779.91048090 Ha     -919198.13247141 eV
  | Energy correction for multipole
  | error in Hartree potential    :          -0.00007862 Ha          -0.00213925 eV
  | Sum of eigenvalues per atom                           :      -92027.29627279 eV
  | Total energy (T->0) per atom                          :     -147959.61947780 eV  <-- do not rely on this value for anything but (periodic) metals
  | Electronic free energy per atom                       :     -147959.61947780 eV

  Self-consistency convergence accuracy:
  | Change of charge density      :  0.1848E+00
  | Change of sum of eigenvalues  : -0.7881E+01 eV
  | Change of total energy        :  0.1426E+00 eV

  End self-consistency iteration #     1       :  max(cpu_time)    wall_clock(cpu1)
  | Time for this iteration                    :        2.992 s           2.984 s
  | Charge density update                      :        1.288 s           1.286 s
  | Density mixing & preconditioning           :        0.060 s           0.059 s
  | Hartree multipole update                   :        0.012 s           0.010 s
  | Hartree multipole summation                :        0.088 s           0.086 s
  | Integration                                :        0.556 s           0.552 s
  | Solution of K.-S. eqns.                    :        0.988 s           0.985 s
  | Total energy evaluation                    :        0.008 s           0.005 s

  Partial memory accounting:
  | Current value for overall tracked memory usage on task 0  :          24.358 MB
  | Peak value for overall tracked memory usage on task 0     :          59.888 MB after allocating gradient_basis_wave
  | Largest tracked array allocation on task 0 so far         :          25.719 MB  when allocating hamiltonian_shell
  Note:  These values currently only include a subset of arrays which are explicitly tracked.
  The "true" memory usage will be greater.
------------------------------------------------------------

------------------------------------------------------------
          Begin self-consistency iteration #    2

  Date     :  20191127, Time     :  203514.584
------------------------------------------------------------
  Evaluating new KS density using the density matrix
  Evaluating density matrix
  Time summed over all CPUs for getting density from density matrix: real work       68.327 s, elapsed       74.804 s
  Integration grid: deviation in total charge (<rho> - N_e) =  -3.793446E-10
  Pulay mixing of updated and previous charge densities.

  Evaluating partitioned Hartree potential by multipole expansion.
  | Analytical far-field extrapolation by fixed multipoles:
  | Hartree multipole sum: apparent total charge =   0.372060E-02
  Summing up the Hartree potential.
  Time summed over all CPUs for potential: real work        6.127 s, elapsed        6.619 s
  | RMS charge density error from multipole expansion :   0.292726E-02
  | Average real-space part of the electrostatic potential :      0.15038187 eV

  Integrating Hamiltonian matrix: batch-based integration.
  Time summed over all CPUs for integration: real work       30.886 s, elapsed       33.459 s

  Updating Kohn-Sham eigenvalues and eigenvectors using ELSI and the ELPA eigensolver.
  Finished Cholesky decomposition
  | Time :     0.001 s
  Finished transformation to standard eigenproblem
  | Time :     0.002 s
  Starting LAPACK eigensolver
  Finished solving standard eigenproblem
  | Time :     0.006 s
  Finished back-transformation of eigenvectors
  | Time :     0.000 s

  Obtaining occupation numbers and chemical potential using ELSI.
  | Chemical potential (Fermi level):    -6.87982579eV
  What follows are estimated values for band gap, HOMO, LUMO, etc.
  | They are estimated on a discrete k-point grid and not necessarily exact.
  | For converged numbers, create a DOS and/or band structure plot on a denser k-grid.

  Highest occupied state (VBM) at     -6.91532256 eV (relative to internal zero)
  | Occupation number:      1.99999948
  | K-point:       1 at    0.000000    0.000000    0.000000 (in units of recip. lattice)

  Lowest unoccupied state (CBM) at    -5.53357244 eV (relative to internal zero)
  | Occupation number:      0.00000000
  | K-point:     126 at    0.000000    0.500000    0.500000 (in units of recip. lattice)

  ESTIMATED overall HOMO-LUMO gap:      1.38175012 eV between HOMO at k-point 1 and LUMO at k-point 126
  | This appears to be an indirect band gap.
  | Smallest direct gap :      2.21525751 eV for k_point 75 at    0.000000    0.500000    0.500000 (in units of recip. lattice)
[...]
  |   0.163858     78.026     78.031     58.012      0.003      0.006      0.008
  |   0.260739     57.161     57.169     47.723      0.002      0.006      0.006
  |   0.399006     37.462     37.467     34.328      0.001      0.004      0.003
  |   0.600000     21.878     21.879     21.075      0.000      0.002      0.001
  |   0.902242     11.448     11.448     11.272      0.000      0.000      0.000
  |   1.380693      5.372      5.372      5.338      0.000      0.000      0.000
  |   2.197021      2.225      2.225      2.220      0.000      0.000      0.000
  |   3.754417      0.779      0.779      0.778      0.000      0.000      0.000
  |   7.305481      0.207      0.207      0.207      0.000      0.000      0.000
  |  18.530638      0.032      0.032      0.032      0.000      0.000      0.000
  |  99.337689      0.001      0.001      0.001      0.000      0.000      0.000
  | --------------------------------------------------------------
  | Partitioned atomic C6 coefficients and polarizabilities (a.u.)
  | --------------------------------------------------------------
  | ATOM   1  Hf  868.168442         77.572813
  | ATOM   2  S   85.702503          9.426998
  | ATOM   3  S   85.672380          9.420654
  | --------------------------------------------------------------
  | Computing MBD@rsSCS energy...
    WARNING: Found 776 Negative Eigenvalues.
  | --------------------------------------------------------------

  Total energy components:
  | Sum of eigenvalues            :      -10148.38116946 Ha     -276151.50205480 eV
  | XC energy correction          :        -363.09344984 Ha       -9880.27547291 eV
  | XC potential correction       :         474.00965799 Ha       12898.45906041 eV
  | Free-atom electrostatic energy:       -6277.53162502 Ha     -170820.32675939 eV
  | Hartree energy correction     :           2.77891519 Ha          75.61812980 eV
  | Entropy correction            :          -0.00000000 Ha          -0.00000000 eV
  | ---------------------------
  | Total energy                  :      -16312.25973295 Ha     -443879.17165729 eV
  | Total energy, T -> 0          :      -16312.25973295 Ha     -443879.17165729 eV  <-- do not rely on this value for anything but (periodic) metals
  | Electronic free energy        :      -16312.25973295 Ha     -443879.17165729 eV

  Derived energy quantities:
  | Kinetic energy                :       17830.81731075 Ha      485201.22579205 eV
  | Electrostatic energy          :      -33779.94153205 Ha     -919198.97741602 eV
  | Energy correction for multipole
  | error in Hartree potential    :          -0.00141577 Ha          -0.03852506 eV
  | Sum of eigenvalues per atom                           :      -92050.50068493 eV
  | Total energy (T->0) per atom                          :     -147959.72388576 eV  <-- do not rely on this value for anything but (periodic) metals
  | Electronic free energy per atom                       :     -147959.72388576 eV

  atomic forces [eV/Ang]:
  -----------------------
  atom #    1
   Hellmann-Feynman              : -0.886556E-03  0.585703E-03  0.149267E-01
   Ionic forces                  :  0.000000E+00  0.000000E+00  0.000000E+00
   Multipole                     : -0.544372E-05  0.254920E-05 -0.598383E-03
   Pulay + GGA                   :  0.107381E-02 -0.700915E-03 -0.620762E-02
   Van der Waals                 :  0.206803E-05 -0.120653E-05  0.792124E-04
   ----------------------------------------------------------------
   Total forces(   1)            :  0.183875E-03 -0.113870E-03  0.819988E-02
  atom #    2
   Hellmann-Feynman              : -0.738732E-04 -0.491311E-02  0.137682E+02
   Ionic forces                  :  0.000000E+00  0.000000E+00  0.000000E+00
   Multipole                     : -0.100387E-04 -0.369402E-03  0.800445E-01
   Pulay + GGA                   :  0.242942E-02  0.326326E-02 -0.139265E+02
   Van der Waals                 :  0.111281E-04  0.287955E-04  0.768186E-01
   ----------------------------------------------------------------
   Total forces(   2)            :  0.235663E-02 -0.199046E-02 -0.150447E-02
  atom #    3
   Hellmann-Feynman              :  0.181231E-03  0.486799E-02 -0.137604E+02
   Ionic forces                  :  0.000000E+00  0.000000E+00  0.000000E+00
   Multipole                     : -0.202661E-04  0.387577E-03 -0.802301E-01
   Pulay + GGA                   : -0.266921E-02 -0.313292E-02  0.139109E+02
   Van der Waals                 : -0.131961E-04 -0.275890E-04 -0.768978E-01
   ----------------------------------------------------------------
   Total forces(   3)            : -0.252144E-02  0.209506E-02 -0.663440E-02


  Analytical stress tensor components [eV]         xx                  yy                  zz                  xy                  xz                  yz
  -----------------------------------------------------------------------------------------------------------------------------------------------------------
    Nuclear Hellmann-Feynman      :    -0.3631957749E+02   -0.3630473283E+02   -0.8742047402E+01    0.2537735013E-02    0.6500649524E-02    0.2248349559E-02
    Multipole Hellmann-Feynman    :    -0.6652026417E+02   -0.6653514339E+02   -0.2614060434E+02   -0.1333257926E-01   -0.1395620841E-01    0.1897769561E-02
    On-site Multipole corrections :    -0.4357372721E+01   -0.4357131786E+01   -0.4357277842E+01    0.9545028449E-06    0.4008501431E-06    0.1037822675E-03
    Strain deriv. of the orbitals :     0.1062920139E+03    0.1062982995E+03    0.3846865045E+02    0.5156286981E-02    0.4786605562E-03    0.1312888436E-02
    vdW correction   :     0.9334429012E+00    0.9320806034E+00    0.7989684510E+00   -0.1541359296E-03   -0.5916159992E-03    0.2539335115E-03
  -----------------------------------------------------------------------------------------------------------------------------------------------------------
  Sum of all contributions        :     0.2824243648E-01    0.3337205580E-01    0.2768930915E-01   -0.5791738697E-02   -0.7568113474E-02    0.5816723335E-02

  +-------------------------------------------------------------------+
  |              Analytical stress tensor - Symmetrized               |
  |                  Cartesian components [eV/A**3]                   |
  +-------------------------------------------------------------------+
  |                x                y                z                |
  |                                                                   |
  |  x         0.00043108      -0.00008840      -0.00011552           |
  |  y        -0.00008840       0.00050937       0.00008878           |
  |  z        -0.00011552       0.00008878       0.00042264           |
  |                                                                   |
  |  Pressure:      -0.00045436   [eV/A**3]                           |
  |                                                                   |
  +-------------------------------------------------------------------+

 * Warning: Stress tensor is anisotropic. Be aware that pressure is an isotropic quantity.

  Timings for VdW correction (Tkatchenko-Scheffler 2009 or later):
  | CPU time:        8.176 s, Wall clock time:        8.168 s.
  Removing unitary transformations (pure translations, rotations) from forces on atoms.
  Atomic forces before filtering:
  | Net force on center of mass :   0.190694E-04 -0.926408E-05  0.610082E-04 eV/A
  Removing unitary transformations (rotations) from forces on lattice.
  Lattice forces before filtering:
  | Net torque relative to origin:  -0.132751E-19  0.191792E-19 -0.885079E-17 eV
  Atomic forces after filtering:
  | Net force on center of mass :   0.000000E+00 -0.348449E-18  0.139380E-17 eV/A
  Lattice forces after filtering:
  | Net torque relative to origin:  -0.132751E-19  0.191792E-19 -0.885079E-17 eV

  Energy and forces in a compact form:
  | Total energy uncorrected      :         -0.443879171657295E+06 eV
  | Total energy corrected        :         -0.443879171657295E+06 eV  <-- do not rely on this value for anything but (periodic) metals
  | Electronic free energy        :         -0.443879171657295E+06 eV
  Total atomic forces (unitary forces cleaned) [eV/Ang]:
  |   1          0.177518972519875E-03         -0.110781544007079E-03          0.817953977127522E-02
  |   2          0.235027719404251E-02         -0.198736925215845E-02         -0.152480410694177E-02
  |   3         -0.252779616656238E-02          0.209815079616553E-02         -0.665473566433345E-02

  ------------------------------------ 
  Start decomposition of the XC Energy 
  ------------------------------------ 
  X and C from original XC functional choice 
  Hartree-Fock Energy :          0.000000000 Ha              0.000000000 eV
  X Energy            :       -357.494228495 Ha          -9727.912908121 eV
  C Energy            :         -5.599221340 Ha           -152.362564789 eV
  Total XC Energy     :       -363.093449836 Ha          -9880.275472910 eV
  ------------------------------------ 
  LDA X and C from self-consistent density 
  X Energy LDA        :       -341.337173702 Ha          -9288.257077754 eV
  C Energy LDA        :         -9.915958675 Ha           -269.826964183 eV
  ------------------------------------ 
  End decomposition of the XC Energy 
  ------------------------------------ 

------------------------------------------------------------
  Relaxation / MD: End force evaluation.       :  max(cpu_time)    wall_clock(cpu1)
  | Time for this force evaluation             :       82.392 s          82.458 s

------------------------------------------------------------
  Geometry optimization: Attempting to predict improved coordinates.

  +-------------------------------------------------------------------+
  | Generalized derivatives on lattice vectors [eV/A]                 |
  +-------------------------------------------------------------------+
  |lattice_vector       0.00690620       0.00373778      -0.00116769  |
  |lattice_vector      -0.00185454       0.01068588       0.00186254  |
  |lattice_vector      -0.00130062       0.00099963       0.00475855  |
  +-------------------------------------------------------------------+
  | Forces on lattice vectors cleaned from atomic contributions [eV/A]|
  +-------------------------------------------------------------------+
  |lattice_vector      -0.00528014      -0.00509964       0.00287776  |
  |lattice_vector       0.00022789      -0.00932352      -0.00357325  |
  |lattice_vector       0.00007367       0.00002798      -0.00604816  |
  +-------------------------------------------------------------------+
  | Projected forces for shape relaxation  [eV/A]                     |
  +-------------------------------------------------------------------+
  |lattice_vector      -0.00528014       0.00000000      -0.00000000  |
  |lattice_vector       0.00409418      -0.00709132      -0.00000000  |
  |lattice_vector      -0.00000000       0.00000000      -0.00604816  |
  +-------------------------------------------------------------------+
  Removing unitary transformations (pure translations, rotations) from forces on atoms.
  Atomic forces before filtering:
  | Net force on center of mass :   0.000000E+00 -0.348449E-18  0.139380E-17 eV/A
  Removing unitary transformations (rotations) from forces on lattice.
  Lattice forces before filtering:
  | Net torque relative to origin:   0.000000E+00  0.000000E+00 -0.147513E-17 eV
  Atomic forces after filtering:
  | Net force on center of mass :   0.000000E+00  0.696899E-18  0.139380E-17 eV/A
  Lattice forces after filtering:
  | Net torque relative to origin:   0.000000E+00  0.000000E+00 -0.147513E-17 eV
  || Forces on lattice vectors || =   0.709132E-02 eV/A.
  Net remaining forces (excluding translations, rotations) in present geometry:
  Maximum force component is  0.817954E-02 eV/A.
  Present geometry is converged.

------------------------------------------------------------
  Final atomic structure:
                         x [A]             y [A]             z [A]
  lattice_vector         3.60525160       -0.00000000        0.00000000
  lattice_vector        -1.80306710        3.12300383        0.00000000
  lattice_vector         0.00000000       -0.00000000        5.81885363

            atom        -0.00002883        0.00001845       -0.00033453  Hf
            atom         1.80224059        1.04139108        1.46376640  S
            atom        -0.00002726        2.08159430        4.35542176  S

  Fractional coordinates:
                         L1                L2                L3
       atom_frac        -0.00000504        0.00000591       -0.00005749  Hf
       atom_frac         0.66666304        0.33345815        0.25155580  S
       atom_frac         0.33334200        0.66653594        0.74850169  S
------------------------------------------------------------

------------------------------------------------------------------------------
  Final output of selected total energy values:

  The following output summarizes some interesting total energy values
  at the end of a run (AFTER all relaxation, molecular dynamics, etc.).

  | Total energy of the DFT / Hartree-Fock s.c.f. calculation      :        -443879.171657295 eV
  | Final zero-broadening corrected energy (caution - metals only) :        -443879.171657295 eV
  | For reference only, the value of 1 Hartree used in FHI-aims is :             27.211384500 eV

  Before relying on these values, please be sure to understand exactly which
  total energy value is referred to by a given number. Different objects may
  all carry the same name 'total energy'. Definitions:

  Total energy of the DFT / Hartree-Fock s.c.f. calculation:
  | Note that this energy does not include ANY quantities calculated after the
  | s.c.f. cycle, in particular not ANY RPA, MP2, etc. many-body perturbation terms.

  Final zero-broadening corrected energy:
  | For metallic systems only, a broadening of the occupation numbers at the Fermi
  | level can be extrapolated back to zero broadening by an electron-gas inspired
  | formula. For all systems that are not real metals, this value can be
  | meaningless and should be avoided.

------------------------------------------------------------------------------
  Methods described in the following list of references were used in this FHI-aims run.
  If you publish the results, please make sure to cite these reference if they apply.
  FHI-aims is an academic code, and for our developers (often, Ph.D. students
  and postdocs), scientific credit in the community is essential.
  Thank you for helping us!

  For any use of FHI-aims, please cite:

    Volker Blum, Ralf Gehrke, Felix Hanke, Paula Havu, Ville Havu,
    Xinguo Ren, Karsten Reuter, and Matthias Scheffler
    'Ab initio molecular simulations with numeric atom-centered orbitals'
    Computer Physics Communications 180, 2175-2196 (2009)
    http://dx.doi.org/10.1016/j.cpc.2009.06.022


  For the analytical stress tensor used in your run, please cite:

    Franz Knuth, Christian Carbogno, Viktor Atalla, Volker Blum, Matthias Scheffler
    'All-electron formalism for total energy strain derivatives and
    stress tensor components for numeric atom-centered orbitals'
    Computer Physics Communications 190, 33-50 (2015).
    http://dx.doi.org/10.1016/j.cpc.2015.01.003


  The scalable eigensolver library ELPA was used in your run.
  ELPA is essential especially for large systems on hundreds or thousands of CPUs.
  For ELPA, please cite:

    Andreas Marek, Volker Blum, Rainer Johanni, Ville Havu, Bruno Lang,
    Thomas Auckenthaler, Alexander Heinecke, Hans-Joachim Bungartz, and Hermann Lederer,
    'The ELPA Library - Scalable Parallel Eigenvalue Solutions
    for Electronic Structure Theory and Computational Science'
    The Journal of Physics: Condensed Matter 26, 213201 (2014).
    http://dx.doi.org/10.1088/0953-8984/26/21/213201


  The ELSI infrastructure was used in your run to solve the Kohn-Sham electronic structure.
  Please check out http://elsi-interchange.org to learn more.
  If scalability is important for your project, please acknowledge ELSI by citing:

    V. W-z. Yu, F. Corsetti, A. Garcia, W. P. Huhn, M. Jacquelin, W. Jia,
    B. Lange, L. Lin, J. Lu, W. Mi, A. Seifitokaldani, A. Vazquez-Mayagoitia,
    C. Yang, H. Yang, and V. Blum
    'ELSI: A unified software interface for Kohn-Sham electronic structure solvers'
    Computer Physics Communications 222, 267-285 (2018).
    http://dx.doi.org/10.1016/j.cpc.2017.09.007


  For the real-space grid partitioning and parallelization used in this calculation, please cite:

    Ville Havu, Volker Blum, Paula Havu, and Matthias Scheffler,
    'Efficient O(N) integration for all-electron electronic structure calculation'
    'using numerically tabulated basis functions'
    Journal of Computational Physics 228, 8367-8379 (2009).
    http://dx.doi.org/10.1016/j.jcp.2009.08.008

  Of course, there are many other important community references, e.g., those cited in the
  above references. Our list is limited to references that describe implementations in the
  FHI-aims code. The reason is purely practical (length of this list) - please credit others as well.

------------------------------------------------------------
          Leaving FHI-aims.
          Date     :  20191127, Time     :  205409.354

          Computational steps:
          | Number of self-consistency cycles          :          187
          | Number of SCF (re)initializations          :           14
          | Number of relaxation steps                 :           13

          Detailed time accounting                     :  max(cpu_time)    wall_clock(cpu1)
          | Total time                                 :     1142.088 s        1141.267 s
          | Preparation time                           :        0.628 s           0.627 s
          | Boundary condition initalization           :        5.544 s           5.514 s
          | Grid partitioning                          :        1.268 s           1.257 s
          | Preloading free-atom quantities on grid    :        0.756 s           0.738 s
          | Free-atom superposition energy             :        0.112 s           0.100 s
          | Total time for integrations                :      133.860 s         132.832 s
          | Total time for solution of K.-S. equations :      195.572 s         195.662 s
          | Total time for EV reorthonormalization     :        2.456 s           2.376 s
          | Total time for density & force components  :      648.704 s         647.874 s
          | Total time for mixing & preconditioning    :        9.280 s           8.965 s
          | Total time for Hartree multipole update    :        2.288 s           2.027 s
          | Total time for Hartree multipole sum       :       28.348 s          27.976 s
          | Total time for total energy evaluation     :        1.524 s           1.034 s
          | Total time for scaled ZORA corrections     :        0.000 s           0.000 s
          | Total time for vdW correction              :      112.076 s         111.944 s

          Partial memory accounting:
          | Residual value for overall tracked memory usage across tasks :           0.000 MB (should be 0.000 MB)
          | Peak values for overall tracked memory usage (after allocating wave_pulay):
          |   Minimum:      110.625 MB (on task 31)
          |   Maximum:      119.149 MB (on task 33)
          |   Average:      115.234 MB
          | Largest tracked array allocation (density_matrix_con):
          |   Minimum:       33.228 MB (on task 31)
          |   Maximum:       38.544 MB (on task 26)
          |   Average:       36.242 MB
          Note:  These values currently only include a subset of arrays which are explicitly tracked.
          The "true" memory usage will be greater.

          Have a nice day.
------------------------------------------------------------
