  MPI-parallelism will be employed.
------------------------------------------------------------
          Invoking FHI-aims ...
          Version 171221_1
          Compiled on 2018/11/06 at 11:18:49 on host headnode.

          When using FHI-aims, please cite the following reference:

          Volker Blum, Ralf Gehrke, Felix Hanke, Paula Havu,
          Ville Havu, Xinguo Ren, Karsten Reuter, and Matthias Scheffler,
          'Ab Initio Molecular Simulations with Numeric Atom-Centered Orbitals',
          Computer Physics Communications 180, 2175-2196 (2009)

          For any questions about FHI-aims, please visit the aimsclub website
          with its forums and wiki. Contributions to both the forums and the
          wiki are warmly encouraged - they are for you, and everyone is welcome there.

------------------------------------------------------------



  Date     :  20191127, Time     :  210836.366
  Time zero on CPU 1             :   0.500000000000000E+00  s.
  Internal wall clock time zero  :           344120916.366  s.

  FHI-aims created a unique identifier for this run for later identification
  aims_uuid : 10F70BF6-7FD8-4326-A682-E17AA03D48B1

  Using       80 parallel tasks.
  Task        0 on host t030 reporting.
  Task        1 on host t030 reporting.
  Task        2 on host t030 reporting.
  Task        3 on host t030 reporting.
  Task        4 on host t030 reporting.
  Task        5 on host t030 reporting.
  Task        6 on host t030 reporting.
  Task        7 on host t030 reporting.
  Task        8 on host t030 reporting.
  Task        9 on host t030 reporting.
  Task       10 on host t030 reporting.
  Task       11 on host t030 reporting.
  Task       12 on host t030 reporting.
  Task       13 on host t030 reporting.
  Task       14 on host t030 reporting.
  Task       15 on host t030 reporting.
  Task       16 on host t030 reporting.
  Task       17 on host t030 reporting.
  Task       18 on host t030 reporting.
  Task       19 on host t030 reporting.
  Task       20 on host t024 reporting.
  Task       21 on host t024 reporting.
  Task       22 on host t024 reporting.
  Task       23 on host t024 reporting.
  Task       24 on host t024 reporting.
  Task       25 on host t024 reporting.
  Task       26 on host t024 reporting.
  Task       27 on host t024 reporting.
  Task       28 on host t024 reporting.
  Task       29 on host t024 reporting.
  Task       30 on host t024 reporting.
  Task       31 on host t024 reporting.
  Task       32 on host t024 reporting.
  Task       33 on host t024 reporting.
  Task       34 on host t024 reporting.
  Task       35 on host t024 reporting.
  Task       36 on host t024 reporting.
  Task       37 on host t024 reporting.
  Task       38 on host t024 reporting.
  Task       39 on host t024 reporting.
  Task       40 on host t019 reporting.
  Task       41 on host t019 reporting.
  Task       42 on host t019 reporting.
  Task       43 on host t019 reporting.
  Task       44 on host t019 reporting.
  Task       45 on host t019 reporting.
  Task       46 on host t019 reporting.
  Task       47 on host t019 reporting.
  Task       48 on host t019 reporting.
  Task       49 on host t019 reporting.
  Task       50 on host t019 reporting.
  Task       51 on host t019 reporting.
  Task       52 on host t019 reporting.
  Task       53 on host t019 reporting.
  Task       54 on host t019 reporting.
  Task       55 on host t019 reporting.
  Task       56 on host t019 reporting.
  Task       57 on host t019 reporting.
  Task       58 on host t019 reporting.
  Task       59 on host t019 reporting.
  Task       60 on host t018 reporting.
  Task       61 on host t018 reporting.
  Task       62 on host t018 reporting.
  Task       63 on host t018 reporting.
  Task       64 on host t018 reporting.
  Task       65 on host t018 reporting.
  Task       66 on host t018 reporting.
  Task       67 on host t018 reporting.
  Task       68 on host t018 reporting.
  Task       69 on host t018 reporting.
  Task       70 on host t018 reporting.
  Task       71 on host t018 reporting.
  Task       72 on host t018 reporting.
  Task       73 on host t018 reporting.
  Task       74 on host t018 reporting.
  Task       75 on host t018 reporting.
  Task       76 on host t018 reporting.
  Task       77 on host t018 reporting.
  Task       78 on host t018 reporting.
  Task       79 on host t018 reporting.

  Performing system and environment tests:
  | Environment variable OMP_NUM_THREADS correctly set to 1.
  | Stacksize not measured: no C compiler
  | Checking for scalapack...
  | Testing pdtran()...
  | All pdtran() tests passed.

  Obtaining array dimensions for all initial allocations:
  
  -----------------------------------------------------------------------
  Parsing control.in (first pass over file, find array dimensions only).
  The contents of control.in will be repeated verbatim below
  unless switched off by setting 'verbatim_writeout .false.' .
  in the first line of control.in .
  -----------------------------------------------------------------------
  
  #===============================================================================
  # FHI-aims file: ./control.in
  # Created using the Atomic Simulation Environment (ASE)
  # Wed Nov 27 20:14:05 2019
  #
  # List of parameters used to initialize the calculator:
  #     xc : pbe
  #     adjust_scf : once 2
  #     species_dir : /chemsoft/FHI-aims/stable/species_defaults/tight
  #     spin : none
  #     k_grid : [18, 18, 1]
  #     relativistic : ('atomic_zora', 'scalar')
  #===============================================================================
  xc                                 pbe
  many_body_dispersion
  adjust_scf                         once 2
  ### geometry optimisation section
  relax_geometry    bfgs    1E-2
  relax_unit_cell       fixed_angles
  spin                               none
  k_grid                             18 18 1
  relativistic                       atomic_zora scalar
  #===============================================================================
  
  ################################################################################
  #
  #  FHI-aims code project
  # Volker Blum, Fritz Haber Institute Berlin, 2009
  #
  #  Suggested "tight" defaults for Te atom (to be pasted into control.in file)
  #
  ################################################################################
    species        Te
  #     global species definitions
      nucleus             52
      mass                127.60
  #
      l_hartree           6
  #
      cut_pot             4.0  2.0  1.0
      basis_dep_cutoff    1e-4
  #
      radial_base         64 7.0
      radial_multiplier   2
      angular_grids specified
        division   0.1259  110
        division   0.8959  194
        division   0.9864  302
        division   1.1196  434
  #      division   1.1922  590
  #      division   1.3098  770
  #      division   2.9404  974
  #      outer_grid  974
        outer_grid  434
  ################################################################################
  #
  #  Definition of "minimal" basis
  #
  ################################################################################
  #     valence basis states
      valence      5  s   2.
      valence      5  p   4.
      valence      4  d  10.
  #     ion occupancy
      ion_occ     5  s   1.
      ion_occ     5  p   3.
      ion_occ     4  d  10.
  ################################################################################
  #
  #  Suggested additional basis functions. For production calculations,
  #  uncomment them one after another (the most important basis functions are
  #  listed first).
  #
  #  Constructed for dimers: 2.15 A, 2.55 A, 3.10 A, 3.60 A, 4.50 A
  #
  ################################################################################
  #  "First tier" - max. impr. -217.34  meV, min. impr. -22.97 meV
       hydro 3 d 3.7
       hydro 4 f 6
       hydro 3 p 2.7
       ionic 5 s auto
  #  "Second tier" - max. impr. -17.80 meV, min. impr. -0.57 meV
       hydro 5 g 9
       hydro 4 f 16.4
       hydro 6 h 12
       hydro 4 p 6.4
       hydro 5 f 32.4
       hydro 4 d 5
       hydro 3 s 2.8
  #  "Third tier" - max. impr. -0.51 meV, min. impr. -0.06 meV
  #     hydro 5 f 8.4
  #     hydro 5 g 11.6
  #     hydro 6 h 15.6
  #     hydro 2 p 1.7
  #     hydro 4 d 9.6
  #     hydro 1 s 6.4
  #  Further functions that fell out of the optimization: -0.17 meV and below
  #     hydro 4 f 33.6
  #     hydro 5 d 6.8
  #     hydro 5 f 16
  ################################################################################
  #
  #  FHI-aims code project
  # Volker Blum, Fritz Haber Institute Berlin, 2009
  #
  #  Suggested "tight" defaults for Hf atom (to be pasted into control.in file)
  #
  ################################################################################
    species          Hf
  #     global species definitions
      nucleus        72
      mass           178.49
  #
      l_hartree      6
  #
      cut_pot        4.0  2.0  1.0
      basis_dep_cutoff    1e-4
  #
      radial_base    71  7.0
      radial_multiplier  2
      angular_grids specified
        division   0.3723   50
        division   0.7995  110
        division   1.2133  194
        division   1.4586  302
        division   1.6594  434
  #      division   1.9508  590
  #      division   2.1708  770
  #      division   2.4268  974
  #      division   3.3577 1202
  #      outer_grid  974
        outer_grid  434
  ################################################################################
  #
  #  Definition of "minimal" basis
  #
  ################################################################################
  #     valence basis states
      valence      6  s   2.
      valence      5  p   6.
      valence      5  d   2.
      valence      4  f  14.
  #     ion occupancy
      ion_occ      6  s   1.
      ion_occ      5  p   6.
      ion_occ      5  d   1.
      ion_occ      4  f  14.
  ################################################################################
  #
  #  Suggested additional basis functions. For production calculations,
  #  uncomment them one after another (the most important basis functions are
  #  listed first).
  #
  #  Constructed for dimers: 1.975, 2.49, 3.25, 4.50 AA
  #
  ################################################################################
  #
  #  "First tier" - improvements: -322.32 meV to -24.16 meV
       hydro 4 f 6
       hydro 3 d 6
       ionic 6 p auto
       hydro 5 g 10.8
       hydro 4 s 4.7
  #  "Second tier" - improvements: -29.31 meV to -1.14 meV
       hydro 5 f 9.6
       ionic 5 d auto
       hydro 6 h 15.2
       hydro 3 p 2.3
       hydro 4 d 6.6
       hydro 3 s 2.1
  #  "Third tier" - max. impr. -1.11 meV, min. impr. - meV
  #     hydro 5 f 6.6
  #     hydro 5 g 11.2
  #     hydro 6 h 17.6
  #     hydro 3 p 3
  #     hydro 5 g 38.8
  #     hydro 4 d 4.9
  #     hydro 1 s 0.5
  #  "Fourth tier" - max. impr. -0.31 meV, min. impr. -0.11 meV
  #     hydro 5 p 12
  #     hydro 5 f 14
  #     hydro 5 f 20.8
  #     hydro 4 s 12.4
  #     hydro 5 d 19.2
  #     hydro 6 h 22
  #  Further functions: -0.14 meV and below.
  #     hydro 5 p 8.6
  #     hydro 4 s 6
  #     hydro 6 d 9.8
  #     hydro 5 f 19.6
  
  -----------------------------------------------------------------------
  Completed first pass over input file control.in .
  -----------------------------------------------------------------------
  
  
  -----------------------------------------------------------------------
  Parsing geometry.in (first pass over file, find array dimensions only).
  The contents of geometry.in will be repeated verbatim below
  unless switched off by setting 'verbatim_writeout .false.' .
  in the first line of geometry.in .
  -----------------------------------------------------------------------
  
  #=======================================================
  # FHI-aims file: ./geometry.in
  # Created using the Atomic Simulation Environment (ASE)
  # Wed Nov 27 20:14:05 2019
  #=======================================================
  lattice_vector 4.0182607499999996 0.0000000000000000 0.0000000000000000
  lattice_vector -2.0091303699999998 3.4799158900000000 0.0000000000000000
  lattice_vector 0.0000000000000000 0.0000000000000000 100.0000000000000000
  atom 2.0091303699999998 -1.1599719600000000 -16.9976243700000005 Te
  atom 0.0000000000000000 0.0000000000000000 -15.2575880000000002 Hf
  atom -2.0091303699999998 1.1599719600000000 -5.8887576299999997 Te
  atom 0.0000000000000000 0.0000000000000000 -7.6287940000000001 Hf
  atom 2.0091303699999998 -1.1599719600000000 -9.3688303699999995 Te
  atom -2.0091303699999998 1.1599719600000000 -13.5175516299999998 Te
  
  -----------------------------------------------------------------------
  Completed first pass over input file geometry.in .
  -----------------------------------------------------------------------
  

  Basic array size parameters:
  | Number of species                 :        2
  | Number of atoms                   :        6
  | Number of lattice vectors         :        3
  | Max. basis fn. angular momentum   :        5
  | Max. atomic/ionic basis occupied n:        6
  | Max. number of basis fn. types    :        3
  | Max. radial fns per species/type  :       14
  | Max. logarithmic grid size        :     1480
  | Max. radial integration grid size :      143
  | Max. angular integration grid size:      434
  | Max. angular grid division number :        8
  | Radial grid for Hartree potential :     1480
  | Number of spin channels           :        1

------------------------------------------------------------
          Reading file control.in.
------------------------------------------------------------
  XC: Using PBE gradient-corrected functionals.
  Using the default MBD implementation with analytical forces
  S.C.F. convergence parameters will be adjusted in iteration number     2 of the first full s.c.f. cycle only.
  Geometry relaxation: Modified BFGS - TRM (trust radius method, i.e., trusted quadratic extrapolation).
  Convergence accuracy for geometry relaxation: Maximum force <   0.100000E-01 eV/A.
  Spin treatment: No spin polarisation.
  Found k-point grid:        18        18         1
  Scalar relativistic treatment of kinetic energy: on-site free-atom approximation to ZORA.
 
  Reading configuration options for species Te                  .
  | Found nuclear charge :  52.0000
  | Found atomic mass :    127.600000000000      amu
  | Found l_max for Hartree potential  :   6
  | Found cutoff potl. onset [A], width [A], scale factor :    4.00000    2.00000    1.00000
  | Threshold for basis-dependent cutoff potential is   0.100000E-03
  | Found data for basic radial integration grid :    64 points, outermost radius =    7.000 A
  | Found multiplier for basic radial grid :   2
  | Found angular grid specification: user-specified.
  | Specified grid contains     5 separate shells.
  | Check grid settings after all constraints further below.
  | Found free-atom valence shell :  5 s   2.000
  | Found free-atom valence shell :  5 p   4.000
  | Found free-atom valence shell :  4 d  10.000
  | Found free-ion valence shell :  5 s   1.000
  | Found free-ion valence shell :  5 p   3.000
  | Found free-ion valence shell :  4 d  10.000
  | Found hydrogenic basis function :  3 d   3.700
  | Found hydrogenic basis function :  4 f   6.000
  | Found hydrogenic basis function :  3 p   2.700
  | Found ionic basis function :  5 s , default cutoff radius.
  | Found hydrogenic basis function :  5 g   9.000
  | Found hydrogenic basis function :  4 f  16.400
  | Found hydrogenic basis function :  6 h  12.000
  | Found hydrogenic basis function :  4 p   6.400
  | Found hydrogenic basis function :  5 f  32.400
  | Found hydrogenic basis function :  4 d   5.000
  | Found hydrogenic basis function :  3 s   2.800
  Species Te                  : Missing cutoff potential type.
  Defaulting to exp(1/x)/(1-x)^2 type cutoff potential.
  Species Te: No 'logarithmic' tag. Using default grid for free atom:
  | Default logarithmic grid data [bohr] : 0.1000E-03 0.1000E+03 0.1012E+01
  | Will include ionic basis functions of  2.0-fold positive Te                   ion.
  Species Te: On-site basis accuracy parameter (for Gram-Schmidt orthonormalisation) not specified.
  Using default value basis_acc =  0.1000000E-03.
  Species Te                  : Using default innermost maximum threshold i_radial=  2 for radial functions.
  Species Te                  : Default cutoff onset for free atom density etc. : 0.40000000E+01 AA.
  Species Te                  : Basic radial grid will be enhanced according to radial_multiplier =   2, to contain   129 grid points.
 
  Reading configuration options for species Hf                  .
  | Found nuclear charge :  72.0000
  | Found atomic mass :    178.490000000000      amu
  | Found l_max for Hartree potential  :   6
  | Found cutoff potl. onset [A], width [A], scale factor :    4.00000    2.00000    1.00000
  | Threshold for basis-dependent cutoff potential is   0.100000E-03
  | Found data for basic radial integration grid :    71 points, outermost radius =    7.000 A
  | Found multiplier for basic radial grid :   2
  | Found angular grid specification: user-specified.
  | Specified grid contains     6 separate shells.
  | Check grid settings after all constraints further below.
  | Found free-atom valence shell :  6 s   2.000
  | Found free-atom valence shell :  5 p   6.000
  | Found free-atom valence shell :  5 d   2.000
  | Found free-atom valence shell :  4 f  14.000
  | Found free-ion valence shell :  6 s   1.000
  | Found free-ion valence shell :  5 p   6.000
  | Found free-ion valence shell :  5 d   1.000
  | Found free-ion valence shell :  4 f  14.000
  | Found hydrogenic basis function :  4 f   6.000
  | Found hydrogenic basis function :  3 d   6.000
  | Found ionic basis function :  6 p , default cutoff radius.
  | Found hydrogenic basis function :  5 g  10.800
  | Found hydrogenic basis function :  4 s   4.700
  | Found hydrogenic basis function :  5 f   9.600
  | Found ionic basis function :  5 d , default cutoff radius.
  | Found hydrogenic basis function :  6 h  15.200
  | Found hydrogenic basis function :  3 p   2.300
  | Found hydrogenic basis function :  4 d   6.600
  | Found hydrogenic basis function :  3 s   2.100
  Species Hf                  : Missing cutoff potential type.
  Defaulting to exp(1/x)/(1-x)^2 type cutoff potential.
  Species Hf: No 'logarithmic' tag. Using default grid for free atom:
  | Default logarithmic grid data [bohr] : 0.1000E-03 0.1000E+03 0.1012E+01
  | Will include ionic basis functions of  2.0-fold positive Hf                   ion.
  Species Hf: On-site basis accuracy parameter (for Gram-Schmidt orthonormalisation) not specified.
  Using default value basis_acc =  0.1000000E-03.
  Species Hf                  : Using default innermost maximum threshold i_radial=  2 for radial functions.
  Species Hf                  : Default cutoff onset for free atom density etc. : 0.40000000E+01 AA.
  Species Hf                  : Basic radial grid will be enhanced according to radial_multiplier =   2, to contain   143 grid points.
  | MBD: Using the same k-grid sampling as DFT
 
  Finished reading input file 'control.in'. Consistency checks are next.
 
  MPI_IN_PLACE appears to work with this MPI implementation.
  | Keeping use_mpi_in_place .true. (see manual).
  Target number of points in a grid batch is not set. Defaulting to  100
  Method for grid partitioning is not set. Defaulting to parallel hash+maxmin partitioning.
  Batch size limit is not set. Defaulting to    200
  By default, will store active basis functions for each batch.
  If in need of memory, prune_basis_once .false. can be used to disable this option.
  communication_type for Hartree potential was not specified.
  Defaulting to calc_hartree .
  Defaulting to Pulay charge density mixer.
  Pulay mixer: Number of relevant iterations not set.
  Defaulting to    8 iterations.
  Pulay mixer: Number of initial linear mixing iterations not set.
  Defaulting to    0 iterations.
  Work space size for distributed Hartree potential not set.
  Defaulting to   0.200000E+03 MB.
  Mixing parameter for charge density mixing has not been set.
  Using default: charge_mix_param =     0.0500.
  The mixing parameter will be adjusted in iteration number     2 of the first full s.c.f. cycle only.
  Algorithm-dependent basis array size parameters:
  | n_max_pulay                         :        8
 * Notice: The s.c.f. convergence criterion sc_accuracy_rho was not provided.
 * We used to stop in this case, and ask the user to provide reasonable
 * scf convergence criteria. However, this led some users to employ criteria
 * that led to extremely long run times, e.g., for simple relaxation.
 * We now preset a default value for sc_accuracy_rho if it is not set.
 * You may still wish to check if this setting is too tight or too loose for your needs.
 * Based on n_atoms, FHI-aims chose sc_accuracy_rho =  0.100000E-05 .
  Maximum number of self-consistency iterations not provided.
  Presetting  1000 iterations.
  Presetting      1001 iterations before the initial mixing cycle
  is restarted anyway using the sc_init_iter criterion / keyword.
  Presetting a factor      1.000 between actual scf density residual
  and density convergence criterion sc_accuracy_rho below which sc_init_iter
  takes no effect.
 * No s.c.f. convergence criteria (sc_accuracy_*) were provided in control.in.
 * The run will proceed with a reasonable default guess, but please check whether.
 * the s.c.f. cycles seem to take too much or too little time.
  No maximum number of relaxation steps, defaulting to     1000
  Default initial Hessian is Lindh matrix (thres = 15.00) plus  0.200000E+01 eV/A^2 times unity.
  No maximum energy tolerance for TRM/BFGS moves, defaulting to   0.200000E-03
  No harmonic length scale. Defaulting to   0.250000E-01 A.
  No trust radius initializer. Defaulting to   0.200000E+00 A.
  Unit cell relaxation: Restricted relaxation with fixed angles between lattice vectors.
  Unit cell relaxation: Analytical stress will be used.
  Analytical stress will be computed.
  Analytical stress calculation: Only the upper triangle is calculated.
                                 Final output is symmetrized.
  Analytical stress calculation: scf convergence accuracy of stress not set.
                                 Analytical stress self-consistency will not be checked explicitly.
                                 Be sure to set other criteria like sc_accuracy_rho tight enough.
  Force calculation: scf convergence accuracy of forces not set.
  Defaulting to 'sc_accuracy_forces not_checked'.
  Handling of forces: Unphysical translation and rotation will be removed from forces.
  No accuracy limit for integral partition fn. given. Defaulting to  0.1000E-14.
  No threshold value for u(r) in integrations given. Defaulting to  0.1000E-05.
  No occupation type (smearing scheme) given. Defaulting to Gaussian broadening, width =  0.1000E-01 eV.
  The width will be adjusted in iteration number     2 of the first full s.c.f. cycle only.
  S.C.F. convergence parameters will be adjusted in iteration number     2 of the first full s.c.f. cycle only.
  No accuracy for occupation numbers given. Defaulting to  0.1000E-12.
  No threshold value for occupation numbers given. Defaulting to  0.0000E+00.
  No accuracy for fermi level given. Defaulting to  0.1000E-19.
  Maximum # of iterations to find E_F not set. Defaulting to  200.
  Preferred method for the eigenvalue solver ('KS_method') not specified in 'control.in'.
  Defaulting to serial version, 'lapack_fast', since more k-points than CPUs available.
  Will not use alltoall communication since running on < 1024 CPUs.
  Threshold for basis singularities not set.
  Default threshold for basis singularities:  0.1000E-04
  partition_type (choice of integration weights) for integrals was not specified.
  | Using a version of the partition function of Stratmann and coworkers ('stratmann_smoother').
  | At each grid point, the set of atoms used to build the partition table is smoothly restricted to
  | only those atoms whose free-atom density would be non-zero at that grid point.
  Partitioning for Hartree potential was not defined. Using partition_type for integrals.
  | Adjusted default value of keyword multip_moments_threshold to:       0.10000000E-11
  | This value may affect high angular momentum components of the Hartree potential in periodic systems.
  Angular momentum expansion for Kerker preconditioner not set explicitly.
  | Using default value of   0
  No explicit requirement for turning off preconditioner.
  | By default, it will be turned off when the charge convergence reaches
  | sc_accuracy_rho  =   0.100000E-05
  No special mixing parameter while Kerker preconditioner is on.
  Using default: charge_mix_param =     0.0500.
  No q(lm)/r^(l+1) cutoff set for long-range Hartree potential.
  | Using default value of  0.100000E-09 .
  | Verify using the multipole_threshold keyword.
  Defaulting to new monopole extrapolation.
  Density update method: automatic selection selected.
  Using density matrix based charge density update.
  Using density matrix based charge density update.
  Using packed matrix style: index .
  Geometry relaxation: A file "geometry.in.next_step" is written out by default after each step.
  | This file contains the geometry of the current relaxation step as well as
  | the current Hessian matrix needed to restart the relaxation algorithm.
  | If you do not want part or all of this information, use the keywords
  | "write_restart_geometry" or "hessian_to_restart_geometry" to switch the output off.
  Defaulting to use time-reversal symmetry for k-point grid.
------------------------------------------------------------


------------------------------------------------------------
          Reading geometry description geometry.in.
------------------------------------------------------------
  Input structure read successfully.
  The structure contains        6 atoms,  and a total of        352.000 electrons.

  Input geometry:
  | Unit cell:
  |        4.01826075        0.00000000        0.00000000
  |       -2.00913037        3.47991589        0.00000000
  |        0.00000000        0.00000000      100.00000000
  | Atomic structure:
  |       Atom                x [A]            y [A]            z [A]
  |    1: Species Te            2.00913037       -1.15997196      -16.99762437
  |    2: Species Hf            0.00000000        0.00000000      -15.25758800
  |    3: Species Te           -2.00913037        1.15997196       -5.88875763
  |    4: Species Hf            0.00000000        0.00000000       -7.62879400
  |    5: Species Te            2.00913037       -1.15997196       -9.36883037
  |    6: Species Te           -2.00913037        1.15997196      -13.51755163

  Lattice parameters for 3D lattice (in Angstroms) :     4.018261    4.018261  100.000000
  Angle(s) between unit vectors (in degrees)      :    90.000000   90.000000  120.000000

  |

  | The smallest distance between any two atoms is         2.89997696 AA.
  |
  | The first atom of this pair is atom number                      2 .
  | The second atom of this pair is atom number                     6 .
  | Wigner-Seitz cell of the first atom image           0     0     0 .
  | (The Wigner-Seitz cell of the second atom is 0 0 0  by definition.)

  Quantities derived from the lattice vectors:
  | Reciprocal lattice vector 1:  1.563658  0.902778  0.000000
  | Reciprocal lattice vector 2: -0.000000  1.805557  0.000000
  | Reciprocal lattice vector 3:  0.000000  0.000000  0.062832
  | Unit cell volume                               :   0.139832E+04  A^3

  Range separation radius for Ewald summation (hartree_convergence_parameter):      5.00000000 bohr.

  Fractional coordinates:
                         L1                L2                L3
       atom_frac         0.33333333       -0.33333333       -0.16997624  Te
       atom_frac         0.00000000        0.00000000       -0.15257588  Hf
       atom_frac        -0.33333333        0.33333333       -0.05888758  Te
       atom_frac         0.00000000        0.00000000       -0.07628794  Hf
       atom_frac         0.33333333       -0.33333333       -0.09368830  Te
       atom_frac        -0.33333333        0.33333333       -0.13517552  Te

  Number of empty states per atom not set in control.in - providing a guess from actual geometry.
  | Total number of empty states used during s.c.f. cycle:       40
  If you use a very high smearing, use empty_states (per atom!) in control.in to increase this value.

  Structure-dependent array size parameters: 
  | Maximum number of distinct radial functions  :       47
  | Maximum number of basis functions            :      538
  | Number of Kohn-Sham states (occupied + empty):      216
------------------------------------------------------------

------------------------------------------------------------
          Preparing all fixed parts of the calculation.
------------------------------------------------------------
  Determining machine precision:
    2.225073858507201E-308
  Setting up grids for atomic and cluster calculations.

  Creating wave function, potential, and density for free atoms.

  Species: Te

  List of occupied orbitals and eigenvalues:
    n    l              occ      energy [Ha]    energy [eV]
    1    0           2.0000     -1205.196269    -32795.0591
    2    0           2.0000      -179.435283     -4882.6825
    3    0           2.0000       -35.515934      -966.4377
    4    0           2.0000        -6.038599      -164.3187
    5    0           2.0000        -0.553449       -15.0601
    2    1           6.0000      -160.997293     -4380.9593
    3    1           6.0000       -29.570439      -804.6526
    4    1           6.0000        -4.201054      -114.3165
    5    1           4.0000        -0.217175        -5.9096
    3    2          10.0000       -20.601415      -560.5930
    4    2          10.0000        -1.529160       -41.6105


  Species: Hf

  List of occupied orbitals and eigenvalues:
    n    l              occ      energy [Ha]    energy [eV]
    1    0           2.0000     -2584.841454    -70337.1147
    2    0           2.0000      -416.409620    -11331.0823
    3    0           2.0000       -93.828152     -2553.1939
    4    0           2.0000       -18.830205      -512.3959
    5    0           2.0000        -2.452388       -66.7329
    6    0           2.0000        -0.182075        -4.9545
    2    1           6.0000      -365.115746     -9935.3049
    3    1           6.0000       -78.772537     -2143.5098
    4    1           6.0000       -13.918099      -378.7307
    5    1           6.0000        -1.297904       -35.3178
    3    2          10.0000       -61.028236     -1660.6628
    4    2          10.0000        -7.585880      -206.4223
    5    2           2.0000        -0.092422        -2.5149
    4    3          14.0000        -0.614647       -16.7254

  Creating fixed part of basis set: Ionic, confined, hydrogenic.
 
  Te                   ion:

  List of free ionic orbitals and eigenvalues:
    n    l      energy [Ha]    energy [eV]
    1    0     -1206.001395    -32816.9677
    2    0      -180.213456     -4903.8576
    3    0       -36.289734      -987.4939
    4    0        -6.806662      -185.2187
    5    0        -1.230780       -33.4912
    2    1      -161.775412     -4402.1329
    3    1       -30.344117      -825.7054
    4    1        -4.968097      -135.1888
    5    1        -0.843350       -22.9487
    3    2       -21.374869      -581.6398
    4    2        -2.290936       -62.3395


  List of ionic basis orbitals and eigenvalues:
    n    l      energy [Ha]    energy [eV]    outer radius [A]
    5    0        -1.230774       -33.4911       4.407087

 
  Te                   hydrogenic:
 
  List of hydrogenic basis orbitals: 
    n    l      effective z      eigenvalue [eV]  inner max. [A]     outer max. [A]     outer radius [A]   
    3    2         3.700000       -20.6934           1.282089           1.282089           5.425112
    4    3         6.000000       -30.6116           1.413813           1.413813           5.359194
    3    1         2.700000       -10.8497           0.586309           2.305482           5.491841
    5    4         9.000000       -44.0820           1.466627           1.466627           5.359194
    4    3        16.400000      -228.7117           0.518841           0.518841           2.803558
    6    5        12.000000       -54.4224           1.578248           1.578248           5.359194
    4    1         6.400000       -34.8270           0.234387           1.942819           5.425112
    5    3        32.400000      -571.3085           0.199946           0.538222           2.249797
    4    2         5.000000       -21.2056           0.721745           2.249797           5.491841
    3    0         2.800000       -11.6572           0.140264           2.450800           5.491841
 
 
  Hf                   ion:

  List of free ionic orbitals and eigenvalues:
    n    l      energy [Ha]    energy [eV]
    1    0     -2585.552822    -70356.4720
    2    0      -417.082963    -11349.4049
    3    0       -94.492979     -2571.2848
    4    0       -19.494122      -530.4620
    5    0        -3.115173       -84.7682
    6    0        -0.684769       -18.6335
    2    1      -365.788271     -9953.6053
    3    1       -79.437124     -2161.5941
    4    1       -14.582223      -396.8025
    5    1        -1.952578       -53.1323
    3    2       -61.692915     -1678.7496
    4    2        -8.250294      -224.5019
    5    2        -0.680962       -18.5299
    4    3        -1.278337       -34.7853


  List of ionic basis orbitals and eigenvalues:
    n    l      energy [Ha]    energy [eV]    outer radius [A]
    6    1        -0.471793       -12.8381       5.450410
    5    2        -0.680950       -18.5296       5.127232

 
  Hf                   hydrogenic:
 
  List of hydrogenic basis orbitals: 
    n    l      effective z      eigenvalue [eV]  inner max. [A]     outer max. [A]     outer radius [A]   
    4    3         6.000000       -30.6116           1.403147           1.403147           5.384184
    3    2         6.000000       -54.4226           0.789894           0.789894           4.165104
    5    4        10.800000       -63.4785           1.226596           1.226596           4.764611
    4    0         4.700000       -18.5431           0.082292           2.748600           5.517450
    5    3         9.600000       -50.1555           0.673827           1.813833           5.384184
    6    5        15.200000       -87.3182           1.256956           1.256956           4.593035
    3    1         2.300000        -7.5446           0.682115           2.649621           5.517450
    4    2         6.600000       -37.0405           0.547383           1.706283           5.384184
    3    0         2.100000        -5.6806           0.186672           2.994169           5.517450
 

  Adding cutoff potential to free-atom effective potential.
  Creating atomic-like basis functions for current effective potential.

  Species Te                  :

  List of atomic basis orbitals and eigenvalues:
    n    l      energy [Ha]    energy [eV]    outer radius [A]
    1    0     -1205.196269    -32795.0591       0.195117
    2    0      -179.435283     -4882.6825       0.531683
    3    0       -35.515934      -966.4377       1.176937
    4    0        -6.038599      -164.3187       2.735843
    5    0        -0.553449       -15.0601       5.294077
    2    1      -160.997293     -4380.9593       0.544843
    3    1       -29.570439      -804.6526       1.266511
    4    1        -4.201054      -114.3165       3.168123
    5    1        -0.217175        -5.9096       5.425112
    3    2       -20.601415      -560.5930       1.431203
    4    2        -1.529160       -41.6105       4.627949


  Species Hf                  :

  List of atomic basis orbitals and eigenvalues:
    n    l      energy [Ha]    energy [eV]    outer radius [A]
    1    0     -2584.841454    -70337.1147       0.135843
    2    0      -416.409620    -11331.0823       0.352500
    3    0       -93.828152     -2553.1939       0.752197
    4    0       -18.830205      -512.3959       1.605110
    5    0        -2.452388       -66.7329       4.165104
    6    0        -0.182075        -4.9545       5.450410
    2    1      -365.115746     -9935.3049       0.370165
    3    1       -78.772537     -2143.5098       0.799610
    4    1       -13.918099      -378.7307       1.813833
    5    1        -1.297904       -35.3178       4.942597
    3    2       -61.028236     -1660.6628       0.860465
    4    2        -7.585880      -206.4223       2.316232
    5    2        -0.092422        -2.5149       5.450410
    4    3        -0.614647       -16.7254       5.003391

  Assembling full basis from fixed parts.
  | Species Te :   atomic orbital   1 s accepted.
  | Species Te :   atomic orbital   2 s accepted.
  | Species Te :   atomic orbital   3 s accepted.
  | Species Te :   atomic orbital   4 s accepted.
  | Species Te :    ionic orbital   5 s accepted.
  | Species Te :   atomic orbital   5 s accepted.
  | Species Te :    hydro orbital   3 s accepted.
  | Species Te :   atomic orbital   2 p accepted.
  | Species Te :   atomic orbital   3 p accepted.
  | Species Te :   atomic orbital   4 p accepted.
  | Species Te :   atomic orbital   5 p accepted.
  | Species Te :    hydro orbital   4 p accepted.
  | Species Te :    hydro orbital   3 p accepted.
  | Species Te :   atomic orbital   3 d accepted.
  | Species Te :   atomic orbital   4 d accepted.
  | Species Te :    hydro orbital   3 d accepted.
  | Species Te :    hydro orbital   4 d accepted.
  | Species Te :    hydro orbital   5 f accepted.
  | Species Te :    hydro orbital   4 f accepted.
  | Species Te :    hydro orbital   4 f accepted.
  | Species Te :    hydro orbital   5 g accepted.
  | Species Te :    hydro orbital   6 h accepted.
  | Species Hf :   atomic orbital   1 s accepted.
  | Species Hf :   atomic orbital   2 s accepted.
  | Species Hf :   atomic orbital   3 s accepted.
  | Species Hf :   atomic orbital   4 s accepted.
  | Species Hf :   atomic orbital   5 s accepted.
  | Species Hf :   atomic orbital   6 s accepted.
  | Species Hf :    hydro orbital   4 s accepted.
  | Species Hf :    hydro orbital   3 s accepted.
  | Species Hf :   atomic orbital   2 p accepted.
  | Species Hf :   atomic orbital   3 p accepted.
  | Species Hf :   atomic orbital   4 p accepted.
  | Species Hf :   atomic orbital   5 p accepted.
  | Species Hf :    ionic orbital   6 p accepted.
  | Species Hf :    hydro orbital   3 p accepted.
  | Species Hf :   atomic orbital   3 d accepted.
  | Species Hf :   atomic orbital   4 d accepted.
  | Species Hf :    hydro orbital   3 d accepted.
  | Species Hf :    ionic orbital   5 d accepted.
  | Species Hf :    hydro orbital   4 d accepted.
  | Species Hf :   atomic orbital   5 d accepted.
  | Species Hf :   atomic orbital   4 f accepted.
  | Species Hf :    hydro orbital   4 f accepted.
  | Species Hf :    hydro orbital   5 f accepted.
  | Species Hf :    hydro orbital   5 g accepted.
  | Species Hf :    hydro orbital   6 h accepted.
 
  Basis size parameters after reduction:
  | Total number of radial functions:       47
  | Total number of basis functions :      538
 
  Per-task memory consumption for arrays in subroutine allocate_ext:
  |          17.822056MB.
  Testing on-site integration grid accuracy.
  |  Species  Function  <phi|h_atom|phi> (log., in eV)  <phi|h_atom|phi> (rad., in eV)
           1        1             -32795.0590846454             -32795.0556605232
           1        2              -4882.6824813465              -4882.6824159868
           1        3               -966.4377413866               -966.4377361228
           1        4               -164.3186507888               -164.3186490966
           1        5                -14.8855865446                -14.8855862180
           1        6                  5.2437428292                  5.2437525172
           1        7                 11.1990165547                 11.1992684860
           1        8              -4380.9592556630              -4380.9592506320
           1        9               -804.6525815679               -804.6525796130
           1       10               -114.3164854912               -114.3164843738
           1       11                 -5.9109395843                 -5.9109349312
           1       12                 11.2960142424                 11.2960193078
           1       13                 11.0222944053                 11.0227420003
           1       14               -560.5930245701               -560.5930241259
           1       15                -41.6105488448                -41.6105483746
           1       16                  5.2198476695                  5.2198521163
           1       17                 17.1207565320                 17.1208262527
           1       18                200.5097003826                200.5097004391
           1       19                168.6935008916                168.6935018573
           1       20                 18.2186318522                 18.2186347166
           1       21                 29.0453900150                 29.0453912086
           1       22                 42.4071998935                 42.4072011778
           2       23             -70337.1146698938             -70337.1000195034
           2       24             -11331.0822838340             -11331.0819974324
           2       25              -2553.1939241453              -2553.1939033462
           2       26               -512.3959483231               -512.3959435020
           2       27                -66.7328606807                -66.7328595155
           2       28                 -4.9609826840                 -4.9609662991
           2       29                  4.4947479365                  4.4949913077
           2       30                 28.7527526455                 28.7552191407
           2       31              -9935.3049395807              -9935.3049326924
           2       32              -2143.5097894837              -2143.5097845638
           2       33               -378.7307348184               -378.7307317605
           2       34                -35.3177612046                -35.3177605024
           2       35                 -0.3051418014                 -0.3051279400
           2       36                  8.1710841039                  8.1714360958
           2       37              -1660.6627841002              -1660.6627822140
           2       38               -206.4223091274               -206.4223074365
           2       39                 -1.1108014107                 -1.1108011650
           2       40                  9.2663821219                  9.2663821092
           2       41                 53.6250270946                 53.6250287562
           2       42                 31.5406305946                 31.5416476133
           2       43                -16.7254068211                -16.7254064919
           2       44                 13.9532729769                 13.9532741918
           2       45                 48.0813797184                 48.0813797916
           2       46                 39.4113660383                 39.4113660065
           2       47                 65.3093031935                 65.3093031260

  Preparing densities etc. for the partition functions (integrals / Hartree potential).

  Preparations completed.
  max(cpu_time)          :      0.704 s.
  Wall clock time (cpu1) :      0.704 s.
------------------------------------------------------------

------------------------------------------------------------
          Begin self-consistency loop: Initialization.

          Date     :  20191127, Time     :  210837.150
------------------------------------------------------------

  Initializing index lists of integration centers etc. from given atomic structure:
  Mapping all atomic coordinates to central unit cell.

  Initializing the k-points
          Using symmetry for reducing the k-points
  | k-points reduced from:      324 to      164
  | Number of k-points                             :       164
  The eigenvectors in the calculations are COMPLEX.
  | K-points in task   0:         2
  | K-points in task   1:         3
  | K-points in task   2:         3
  | K-points in task   3:         3
  | K-points in task   4:         3
  | K-points in task   5:         2
  | K-points in task   6:         2
  | K-points in task   7:         2
  | K-points in task   8:         2
  | K-points in task   9:         2
  | K-points in task  10:         2
  | K-points in task  11:         2
  | K-points in task  12:         2
  | K-points in task  13:         2
  | K-points in task  14:         2
  | K-points in task  15:         2
  | K-points in task  16:         2
  | K-points in task  17:         2
  | K-points in task  18:         2
  | K-points in task  19:         2
  | K-points in task  20:         2
  | K-points in task  21:         2
  | K-points in task  22:         2
  | K-points in task  23:         2
  | K-points in task  24:         2
  | K-points in task  25:         2
  | K-points in task  26:         2
  | K-points in task  27:         2
  | K-points in task  28:         2
  | K-points in task  29:         2
  | K-points in task  30:         2
  | K-points in task  31:         2
  | K-points in task  32:         2
  | K-points in task  33:         2
  | K-points in task  34:         2
  | K-points in task  35:         2
  | K-points in task  36:         2
  | K-points in task  37:         2
  | K-points in task  38:         2
  | K-points in task  39:         2
  | K-points in task  40:         2
  | K-points in task  41:         2
  | K-points in task  42:         2
  | K-points in task  43:         2
  | K-points in task  44:         2
  | K-points in task  45:         2
  | K-points in task  46:         2
  | K-points in task  47:         2
  | K-points in task  48:         2
  | K-points in task  49:         2
  | K-points in task  50:         2
  | K-points in task  51:         2
  | K-points in task  52:         2
  | K-points in task  53:         2
  | K-points in task  54:         2
  | K-points in task  55:         2
  | K-points in task  56:         2
  | K-points in task  57:         2
  | K-points in task  58:         2
  | K-points in task  59:         2
  | K-points in task  60:         2
  | K-points in task  61:         2
  | K-points in task  62:         2
  | K-points in task  63:         2
  | K-points in task  64:         2
  | K-points in task  65:         2
  | K-points in task  66:         2
  | K-points in task  67:         2
  | K-points in task  68:         2
  | K-points in task  69:         2
  | K-points in task  70:         2
  | K-points in task  71:         2
  | K-points in task  72:         2
  | K-points in task  73:         2
  | K-points in task  74:         2
  | K-points in task  75:         2
  | K-points in task  76:         2
  | K-points in task  77:         2
  | K-points in task  78:         2
  | K-points in task  79:         2
  | Number of basis functions in the Hamiltonian integrals :      5878
  | Number of basis functions in a single unit cell        :       538
  | Number of centers in hartree potential         :       490
  | Number of centers in hartree multipole         :       270
  | Number of centers in electron density summation:       214
  | Number of centers in basis integrals           :       216
  | Number of centers in integrals                 :        98
  | Number of centers in hamiltonian               :       214
  | Consuming        107 KiB for k_phase.
  | Number of super-cells (origin) [n_cells]                     :         507
  | Number of super-cells (after PM_index) [n_cells]             :          42
  | Number of super-cells in hamiltonian [n_cells_in_hamiltonian]:          42
  | Size of matrix packed + index [n_hamiltonian_matrix_size] :     1776926
  Initializing relaxation algorithms.
  Partitioning the integration grid into batches with parallel hashing+maxmin method.
  | Number of batches:     2244
  | Maximal batch size:     199
  | Minimal batch size:       2
  | Average batch size:      85.153
  | Standard deviation of batch sizes:      23.873

  Integration load balanced across    80 MPI tasks.
  Work distribution over tasks is as follows:
  Task     0 has       2361 integration points.
  Task     1 has       2366 integration points.
  Task     2 has       2344 integration points.
  Task     3 has       2450 integration points.
  Task     4 has       2436 integration points.
  Task     5 has       2365 integration points.
  Task     6 has       2363 integration points.
  Task     7 has       2351 integration points.
  Task     8 has       2427 integration points.
  Task     9 has       2443 integration points.
  Task    10 has       2364 integration points.
  Task    11 has       2363 integration points.
  Task    12 has       2352 integration points.
  Task    13 has       2359 integration points.
  Task    14 has       2435 integration points.
  Task    15 has       2377 integration points.
  Task    16 has       2510 integration points.
  Task    17 has       2455 integration points.
  Task    18 has       2367 integration points.
  Task    19 has       2352 integration points.
  Task    20 has       2356 integration points.
  Task    21 has       2440 integration points.
  Task    22 has       2355 integration points.
  Task    23 has       2369 integration points.
  Task    24 has       2370 integration points.
  Task    25 has       2367 integration points.
  Task    26 has       2439 integration points.
  Task    27 has       2448 integration points.
  Task    28 has       2463 integration points.
  Task    29 has       2364 integration points.
  Task    30 has       2441 integration points.
  Task    31 has       2356 integration points.
  Task    32 has       2450 integration points.
  Task    33 has       2368 integration points.
  Task    34 has       2361 integration points.
  Task    35 has       2449 integration points.
  Task    36 has       2438 integration points.
  Task    37 has       2437 integration points.
  Task    38 has       2450 integration points.
  Task    39 has       2360 integration points.
  Task    40 has       2361 integration points.
  Task    41 has       2347 integration points.
  Task    42 has       2452 integration points.
  Task    43 has       2363 integration points.
  Task    44 has       2345 integration points.
  Task    45 has       2427 integration points.
  Task    46 has       2457 integration points.
  Task    47 has       2343 integration points.
  Task    48 has       2424 integration points.
  Task    49 has       2363 integration points.
  Task    50 has       2360 integration points.
  Task    51 has       2366 integration points.
  Task    52 has       2374 integration points.
  Task    53 has       2446 integration points.
  Task    54 has       2361 integration points.
  Task    55 has       2365 integration points.
  Task    56 has       2370 integration points.
  Task    57 has       2429 integration points.
  Task    58 has       2360 integration points.
  Task    59 has       2433 integration points.
  Task    60 has       2355 integration points.
  Task    61 has       2364 integration points.
  Task    62 has       2423 integration points.
  Task    63 has       2362 integration points.
  Task    64 has       2365 integration points.
  Task    65 has       2368 integration points.
  Task    66 has       2358 integration points.
  Task    67 has       2460 integration points.
  Task    68 has       2364 integration points.
  Task    69 has       2360 integration points.
  Task    70 has       2440 integration points.
  Task    71 has       2355 integration points.
  Task    72 has       2368 integration points.
  Task    73 has       2362 integration points.
  Task    74 has       2357 integration points.
  Task    75 has       2352 integration points.
  Task    76 has       2357 integration points.
  Task    77 has       2343 integration points.
  Task    78 has       2350 integration points.
  Task    79 has       2354 integration points.
  Initializing partition tables, free-atom densities, potentials, etc. across the integration grid (initialize_grid_storage).
  | initialize_grid_storage: Actual outermost partition radius vs. multipole_radius_free
  | (-- VB: in principle, multipole_radius_free should be larger, hence this output)
  | Species        1: Confinement radius =              6.000000000000000 AA, multipole_radius_free =              6.056084577048819 AA.
  | Species        1: outer_partition_radius set to              6.056084577048819 AA .
  | Species        2: Confinement radius =              6.000000000000000 AA, multipole_radius_free =              6.010396164504727 AA.
  | Species        2: outer_partition_radius set to              6.010396164504727 AA .
  | Original list of interatomic distances with         216 x        216 entries is created.
  | Net number of integration points:   191084
  | of which are non-zero points    :   167292
  | Numerical average free-atom electrostatic potential    :     -2.35554191 eV
  Renormalizing the initial density to the exact electron count on the 3D integration grid.
  | Initial density: Formal number of electrons (from input files) :     352.0000000000
  | Integrated number of electrons on 3D grid     :     351.9998174637
  | Charge integration error                      :      -0.0001825363
  | Normalization factor for density and gradient :       1.0000005186
  Obtaining max. number of non-zero basis functions in each batch (get_n_compute_maxes).
  | Maximal number of non-zero basis functions:     1532 in task     0
  | Maximal number of non-zero basis functions:     1495 in task     1
  | Maximal number of non-zero basis functions:     1535 in task     2
  | Maximal number of non-zero basis functions:     1605 in task     3
  | Maximal number of non-zero basis functions:     1536 in task     4
  | Maximal number of non-zero basis functions:     1508 in task     5
  | Maximal number of non-zero basis functions:     1504 in task     6
  | Maximal number of non-zero basis functions:     1514 in task     7
  | Maximal number of non-zero basis functions:     1471 in task     8
  | Maximal number of non-zero basis functions:     1474 in task     9
  | Maximal number of non-zero basis functions:     1503 in task    10
  | Maximal number of non-zero basis functions:     1542 in task    11
  | Maximal number of non-zero basis functions:     1470 in task    12
  | Maximal number of non-zero basis functions:     1453 in task    13
  | Maximal number of non-zero basis functions:     1498 in task    14
  | Maximal number of non-zero basis functions:     1506 in task    15
  | Maximal number of non-zero basis functions:     1490 in task    16
  | Maximal number of non-zero basis functions:     1605 in task    17
  | Maximal number of non-zero basis functions:     1514 in task    18
  | Maximal number of non-zero basis functions:     1503 in task    19
  | Maximal number of non-zero basis functions:     1504 in task    20
  | Maximal number of non-zero basis functions:     1489 in task    21
  | Maximal number of non-zero basis functions:     1525 in task    22
  | Maximal number of non-zero basis functions:     1495 in task    23
  | Maximal number of non-zero basis functions:     1654 in task    24
  | Maximal number of non-zero basis functions:     1498 in task    25
  | Maximal number of non-zero basis functions:     1515 in task    26
  | Maximal number of non-zero basis functions:     1493 in task    27
  | Maximal number of non-zero basis functions:     1509 in task    28
  | Maximal number of non-zero basis functions:     1473 in task    29
  | Maximal number of non-zero basis functions:     1441 in task    30
  | Maximal number of non-zero basis functions:     1580 in task    31
  | Maximal number of non-zero basis functions:     1511 in task    32
  | Maximal number of non-zero basis functions:     1508 in task    33
  | Maximal number of non-zero basis functions:     1487 in task    34
  | Maximal number of non-zero basis functions:     1471 in task    35
  | Maximal number of non-zero basis functions:     1548 in task    36
  | Maximal number of non-zero basis functions:     1484 in task    37
  | Maximal number of non-zero basis functions:     1482 in task    38
  | Maximal number of non-zero basis functions:     1621 in task    39
  | Maximal number of non-zero basis functions:     1510 in task    40
  | Maximal number of non-zero basis functions:     1502 in task    41
  | Maximal number of non-zero basis functions:     1512 in task    42
  | Maximal number of non-zero basis functions:     1535 in task    43
  | Maximal number of non-zero basis functions:     1479 in task    44
  | Maximal number of non-zero basis functions:     1517 in task    45
  | Maximal number of non-zero basis functions:     1668 in task    46
  | Maximal number of non-zero basis functions:     1461 in task    47
  | Maximal number of non-zero basis functions:     1477 in task    48
  | Maximal number of non-zero basis functions:     1476 in task    49
  | Maximal number of non-zero basis functions:     1527 in task    50
  | Maximal number of non-zero basis functions:     1494 in task    51
  | Maximal number of non-zero basis functions:     1515 in task    52
  | Maximal number of non-zero basis functions:     1523 in task    53
  | Maximal number of non-zero basis functions:     1436 in task    54
  | Maximal number of non-zero basis functions:     1574 in task    55
  | Maximal number of non-zero basis functions:     1485 in task    56
  | Maximal number of non-zero basis functions:     1494 in task    57
  | Maximal number of non-zero basis functions:     1526 in task    58
  | Maximal number of non-zero basis functions:     1511 in task    59
  | Maximal number of non-zero basis functions:     1510 in task    60
  | Maximal number of non-zero basis functions:     1536 in task    61
  | Maximal number of non-zero basis functions:     1663 in task    62
  | Maximal number of non-zero basis functions:     1473 in task    63
  | Maximal number of non-zero basis functions:     1494 in task    64
  | Maximal number of non-zero basis functions:     1489 in task    65
  | Maximal number of non-zero basis functions:     1518 in task    66
  | Maximal number of non-zero basis functions:     1529 in task    67
  | Maximal number of non-zero basis functions:     1460 in task    68
  | Maximal number of non-zero basis functions:     1501 in task    69
  | Maximal number of non-zero basis functions:     1450 in task    70
  | Maximal number of non-zero basis functions:     1508 in task    71
  | Maximal number of non-zero basis functions:     1520 in task    72
  | Maximal number of non-zero basis functions:     1503 in task    73
  | Maximal number of non-zero basis functions:     1534 in task    74
  | Maximal number of non-zero basis functions:     1463 in task    75
  | Maximal number of non-zero basis functions:     1547 in task    76
  | Maximal number of non-zero basis functions:     1585 in task    77
  | Maximal number of non-zero basis functions:     1598 in task    78
  | Maximal number of non-zero basis functions:     1516 in task    79
  Allocating        3.719 MB for KS_eigenvector_complex
  Integrating Hamiltonian matrix: batch-based integration.
  Time summed over all CPUs for integration: real work       54.791 s, elapsed       57.743 s
  Integrating overlap matrix.
  Time summed over all CPUs for integration: real work       41.059 s, elapsed       43.559 s
  Decreasing sparse matrix size:
   Tolerance:  9.999999824516700E-014
   Hamiltonian matrix
  | Array has  1421235 nonzero elements out of  1776926 elements
  | Sparsity factor is 0.200
   Overlap matrix
  | Array has  1285280 nonzero elements out of  1776926 elements
  | Sparsity factor is 0.277
  New size of hamiltonian matrix:     1426134

  Updating Kohn-Sham eigenvalues and eigenvectors using ELSI and the ELPA eigensolver.
  Overlap matrix is nonsingular
  | Lowest eigenvalue of overlap  :  0.11E-03
  | Highest eigenvalue of overlap :  0.79E+01
  Finished singularity check of overlap matrix
  | Time :     0.069 s
  Finished Cholesky decomposition
  | Time :     0.019 s
  Finished transformation to standard eigenproblem
  | Time :     0.029 s
  Starting LAPACK eigensolver
  Finished solving standard eigenproblem
  | Time :     0.081 s
  Finished back-transformation of eigenvectors
  | Time :     0.008 s

  Obtaining occupation numbers and chemical potential using ELSI.
  | Chemical potential (Fermi level):    -5.29989832eV
  Writing Kohn-Sham eigenvalues.
  K-point:       1 at    0.000000    0.000000    0.000000 (in units of recip. lattice)

  State    Occupation    Eigenvalue [Ha]    Eigenvalue [eV]
      1       2.00000       -2584.850849       -70337.37033
      2       2.00000       -2584.850849       -70337.37033
      3       2.00000       -1205.206557       -32795.33902
      4       2.00000       -1205.206557       -32795.33902
      5       2.00000       -1205.206557       -32795.33902
      6       2.00000       -1205.206557       -32795.33902
      7       2.00000        -416.417517       -11331.29718
      8       2.00000        -416.417517       -11331.29718
      9       2.00000        -365.123442        -9935.51438
     10       2.00000        -365.123442        -9935.51438
     11       2.00000        -365.123442        -9935.51438
     12       2.00000        -365.123442        -9935.51438
     13       2.00000        -365.123442        -9935.51438
     14       2.00000        -365.123442        -9935.51438
     15       2.00000        -179.445695        -4882.96580
     16       2.00000        -179.445695        -4882.96580
     17       2.00000        -179.445695        -4882.96580
     18       2.00000        -179.445695        -4882.96580
     19       2.00000        -161.007702        -4381.24248
     20       2.00000        -161.007702        -4381.24248
     21       2.00000        -161.007702        -4381.24248
     22       2.00000        -161.007702        -4381.24248
     23       2.00000        -161.007699        -4381.24241
     24       2.00000        -161.007699        -4381.24241
     25       2.00000        -161.007699        -4381.24241
     26       2.00000        -161.007699        -4381.24241
     27       2.00000        -161.007699        -4381.24241
     28       2.00000        -161.007699        -4381.24241
     29       2.00000        -161.007699        -4381.24241
     30       2.00000        -161.007699        -4381.24241
     31       2.00000         -93.836052        -2553.40889
     32       2.00000         -93.836052        -2553.40889
     33       2.00000         -78.780398        -2143.72370
     34       2.00000         -78.780398        -2143.72370
     35       2.00000         -78.780397        -2143.72367
     36       2.00000         -78.780397        -2143.72367
     37       2.00000         -78.780397        -2143.72367
     38       2.00000         -78.780397        -2143.72367
     39       2.00000         -61.036065        -1660.87583
     40       2.00000         -61.036065        -1660.87583
     41       2.00000         -61.036065        -1660.87583
     42       2.00000         -61.036065        -1660.87583
     43       2.00000         -61.036064        -1660.87581
     44       2.00000         -61.036064        -1660.87581
     45       2.00000         -61.036063        -1660.87579
     46       2.00000         -61.036063        -1660.87579
     47       2.00000         -61.036063        -1660.87579
     48       2.00000         -61.036063        -1660.87579
     49       2.00000         -35.526744         -966.73188
     50       2.00000         -35.526744         -966.73188
     51       2.00000         -35.526743         -966.73188
     52       2.00000         -35.526743         -966.73188
     53       2.00000         -29.581266         -804.94722
     54       2.00000         -29.581266         -804.94722
     55       2.00000         -29.581266         -804.94721
     56       2.00000         -29.581266         -804.94721
     57       2.00000         -29.581244         -804.94660
     58       2.00000         -29.581244         -804.94660
     59       2.00000         -29.581244         -804.94660
     60       2.00000         -29.581244         -804.94660
     61       2.00000         -29.581244         -804.94660
     62       2.00000         -29.581244         -804.94660
     63       2.00000         -29.581244         -804.94660
     64       2.00000         -29.581244         -804.94660
     65       2.00000         -20.612179         -560.88592
     66       2.00000         -20.612179         -560.88592
     67       2.00000         -20.612179         -560.88591
     68       2.00000         -20.612179         -560.88591
     69       2.00000         -20.612178         -560.88590
     70       2.00000         -20.612178         -560.88590
     71       2.00000         -20.612178         -560.88590
     72       2.00000         -20.612178         -560.88590
     73       2.00000         -20.612178         -560.88590
     74       2.00000         -20.612178         -560.88590
     75       2.00000         -20.612178         -560.88590
     76       2.00000         -20.612178         -560.88590
     77       2.00000         -20.612161         -560.88544
     78       2.00000         -20.612161         -560.88544
     79       2.00000         -20.612161         -560.88544
     80       2.00000         -20.612161         -560.88544
     81       2.00000         -20.612161         -560.88544
     82       2.00000         -20.612161         -560.88544
     83       2.00000         -20.612161         -560.88544
     84       2.00000         -20.612161         -560.88544
     85       2.00000         -18.838826         -512.63053
     86       2.00000         -18.838826         -512.63053
     87       2.00000         -13.926855         -378.96900
     88       2.00000         -13.926855         -378.96900
     89       2.00000         -13.926848         -378.96883
     90       2.00000         -13.926848         -378.96883
     91       2.00000         -13.926848         -378.96883
     92       2.00000         -13.926848         -378.96883
     93       2.00000          -7.594891         -206.66749
     94       2.00000          -7.594891         -206.66749
     95       2.00000          -7.594891         -206.66749
     96       2.00000          -7.594891         -206.66749
     97       2.00000          -7.594831         -206.66586
     98       2.00000          -7.594831         -206.66586
     99       2.00000          -7.594826         -206.66572
    100       2.00000          -7.594826         -206.66572
    101       2.00000          -7.594826         -206.66572
    102       2.00000          -7.594826         -206.66572
    103       2.00000          -6.051654         -164.67389
    104       2.00000          -6.051654         -164.67389
    105       2.00000          -6.051653         -164.67387
    106       2.00000          -6.051653         -164.67387
    107       2.00000          -4.214708         -114.68803
    108       2.00000          -4.214708         -114.68803
    109       2.00000          -4.214706         -114.68799
    110       2.00000          -4.214706         -114.68799
    111       2.00000          -4.214558         -114.68395
    112       2.00000          -4.214558         -114.68395
    113       2.00000          -4.214558         -114.68394
    114       2.00000          -4.214558         -114.68394
    115       2.00000          -4.214557         -114.68393
    116       2.00000          -4.214557         -114.68393
    117       2.00000          -4.214557         -114.68393
    118       2.00000          -4.214557         -114.68393
    119       2.00000          -2.467587          -67.14646
    120       2.00000          -2.467587          -67.14646
    121       2.00000          -1.545195          -42.04690
    122       2.00000          -1.545195          -42.04690
    123       2.00000          -1.545194          -42.04686
    124       2.00000          -1.545194          -42.04686
    125       2.00000          -1.545106          -42.04448
    126       2.00000          -1.545106          -42.04448
    127       2.00000          -1.545105          -42.04444
    128       2.00000          -1.545105          -42.04444
    129       2.00000          -1.544472          -42.02721
    130       2.00000          -1.544469          -42.02715
    131       2.00000          -1.544450          -42.02661
    132       2.00000          -1.544448          -42.02658
    133       2.00000          -1.544270          -42.02172
    134       2.00000          -1.544270          -42.02172
    135       2.00000          -1.544270          -42.02171
    136       2.00000          -1.544269          -42.02171
    137       2.00000          -1.544244          -42.02102
    138       2.00000          -1.544244          -42.02101
    139       2.00000          -1.544244          -42.02101
    140       2.00000          -1.544244          -42.02101
    141       2.00000          -1.319489          -35.90512
    142       2.00000          -1.319489          -35.90511
    143       2.00000          -1.317694          -35.85628
    144       2.00000          -1.317694          -35.85628
    145       2.00000          -1.317694          -35.85628
    146       2.00000          -1.317694          -35.85628
    147       2.00000          -0.643597          -17.51317
    148       2.00000          -0.642574          -17.48532
    149       2.00000          -0.628217          -17.09465
    150       2.00000          -0.628093          -17.09127
    151       2.00000          -0.625662          -17.02513
    152       2.00000          -0.625662          -17.02513
    153       2.00000          -0.625662          -17.02513
    154       2.00000          -0.625662          -17.02513
    155       2.00000          -0.625098          -17.00978
    156       2.00000          -0.625098          -17.00978
    157       2.00000          -0.625098          -17.00978
    158       2.00000          -0.625098          -17.00978
    159       2.00000          -0.624982          -17.00663
    160       2.00000          -0.624982          -17.00662
    161       2.00000          -0.624905          -17.00452
    162       2.00000          -0.624905          -17.00452
    163       2.00000          -0.604117          -16.43885
    164       2.00000          -0.602484          -16.39442
    165       2.00000          -0.363169           -9.88233
    166       2.00000          -0.354310           -9.64126
    167       2.00000          -0.276216           -7.51621
    168       2.00000          -0.276215           -7.51619
    169       2.00000          -0.276013           -7.51069
    170       2.00000          -0.276012           -7.51066
    171       2.00000          -0.259194           -7.05303
    172       2.00000          -0.239497           -6.51705
    173       2.00000          -0.196928           -5.35868
    174       2.00000          -0.196928           -5.35868
    175       2.00000          -0.196214           -5.33926
    176       2.00000          -0.196214           -5.33925
    177       0.00000          -0.150658           -4.09962
    178       0.00000          -0.150658           -4.09961
    179       0.00000          -0.150560           -4.09694
    180       0.00000          -0.150559           -4.09693
    181       0.00000          -0.147764           -4.02087
    182       0.00000          -0.141413           -3.84806
    183       0.00000          -0.050228           -1.36678
    184       0.00000          -0.038151           -1.03814
    185       0.00000          -0.038150           -1.03810
    186       0.00000          -0.036886           -1.00371
    187       0.00000          -0.035893           -0.97671
    188       0.00000          -0.035892           -0.97668
    189       0.00000          -0.034614           -0.94189
    190       0.00000          -0.024858           -0.67643
    191       0.00000           0.037974            1.03332
    192       0.00000           0.059254            1.61237
    193       0.00000           0.070239            1.91130
    194       0.00000           0.070244            1.91143
    195       0.00000           0.070287            1.91260
    196       0.00000           0.070292            1.91274
    197       0.00000           0.099625            2.71094
    198       0.00000           0.142293            3.87200
    199       0.00000           0.152755            4.15667
    200       0.00000           0.158210            4.30511
    201       0.00000           0.167252            4.55116
    202       0.00000           0.193356            5.26147
    203       0.00000           0.193378            5.26208
    204       0.00000           0.204691            5.56992
    205       0.00000           0.204712            5.57049
    206       0.00000           0.234435            6.37929
    207       0.00000           0.234444            6.37954
    208       0.00000           0.235624            6.41165
    209       0.00000           0.236280            6.42950
    210       0.00000           0.236280            6.42951
    211       0.00000           0.254255            6.91863
    212       0.00000           0.262304            7.13764
    213       0.00000           0.277772            7.55857
    214       0.00000           0.292675            7.96411
    215       0.00000           0.292686            7.96439
    216       0.00000           0.318649            8.67088

  What follows are estimated values for band gap, HOMO, LUMO, etc.
  | They are estimated on a discrete k-point grid and not necessarily exact.
  | For converged numbers, create a DOS and/or band structure plot on a denser k-grid.

  Highest occupied state (VBM) at     -5.33925450 eV (relative to internal zero)
  | Occupation number:      1.99999997
  | K-point:       1 at    0.000000    0.000000    0.000000 (in units of recip. lattice)

  Lowest unoccupied state (CBM) at    -5.06929539 eV (relative to internal zero)
  | Occupation number:      0.00000000
  | K-point:       8 at    0.000000    0.500000    0.000000 (in units of recip. lattice)

  ESTIMATED overall HOMO-LUMO gap:      0.26995911 eV between HOMO at k-point 1 and LUMO at k-point 8
  | This appears to be an indirect band gap.
  | Smallest direct gap :      1.23963648 eV for k_point 1 at    0.000000    0.500000    0.000000 (in units of recip. lattice)
  The gap value is above 0.2 eV. Unless you are using a very sparse k-point grid,
  this system is most likely an insulator or a semiconductor.
  Calculating total energy contributions from superposition of free atom densities.

  Total energy components:
  | Sum of eigenvalues            :      -36348.83960649 Ha     -989102.25066115 eV
  | XC energy correction          :       -1330.79891702 Ha      -36212.88102333 eV
  | XC potential correction       :        1738.33463837 Ha       47302.49223446 eV
  | Free-atom electrostatic energy:      -22659.78599793 Ha     -616604.14947744 eV
  | Hartree energy correction     :           0.00000000 Ha           0.00000000 eV
  | Entropy correction            :          -0.00000000 Ha          -0.00000000 eV
  | ---------------------------
  | Total energy                  :      -58601.08988308 Ha    -1594616.78892747 eV
  | Total energy, T -> 0          :      -58601.08988308 Ha    -1594616.78892747 eV  <-- do not rely on this value for anything but (periodic) metals
  | Electronic free energy        :      -58601.08988308 Ha    -1594616.78892747 eV

  Derived energy quantities:
  | Kinetic energy                :       62960.89907397 Ha     1713253.23316761 eV
  | Electrostatic energy          :     -120231.19004003 Ha    -3271657.14107174 eV
  | Energy correction for multipole
  | error in Hartree potential    :           0.00000000 Ha           0.00000000 eV
  | Sum of eigenvalues per atom                           :     -164850.37511019 eV
  | Total energy (T->0) per atom                          :     -265769.46482124 eV  <-- do not rely on this value for anything but (periodic) metals
  | Electronic free energy per atom                       :     -265769.46482124 eV
  Initialize hartree_potential_storage
  Max. number of atoms included in rho_multipole:            6

  End scf initialization - timings             :  max(cpu_time)    wall_clock(cpu1)
  | Time for scf. initialization               :        3.372 s           3.369 s
  | Boundary condition initialization          :        0.948 s           0.939 s
  | Relaxation initialization                  :        0.004 s           0.001 s
  | Integration                                :        1.348 s           1.346 s
  | Solution of K.-S. eqns.                    :        0.772 s           0.770 s
  | Grid partitioning                          :        0.168 s           0.166 s
  | Preloading free-atom quantities on grid    :        0.016 s           0.014 s
  | Free-atom superposition energy             :        0.012 s           0.008 s
  | Total energy evaluation                    :        0.004 s           0.001 s

  Partial memory accounting:
  | Current value for overall tracked memory usage on task 0  :          32.243 MB
  | Peak value for overall tracked memory usage on task 0     :          65.388 MB after allocating wave
  | Largest tracked array allocation on task 0 so far         :          18.776 MB  when allocating hamiltonian_shell
  Note:  These values currently only include a subset of arrays which are explicitly tracked.
  The "true" memory usage will be greater.
------------------------------------------------------------

------------------------------------------------------------
          Begin self-consistency iteration #    1

  Date     :  20191127, Time     :  210840.520
------------------------------------------------------------
  Evaluating new KS density using the density matrix
  Evaluating density matrix
  Time summed over all CPUs for getting density from density matrix: real work      112.377 s, elapsed      118.904 s
  Integration grid: deviation in total charge (<rho> - N_e) =  -1.610942E-10
  Pulay mixing of updated and previous charge densities.

  Evaluating partitioned Hartree potential by multipole expansion.
  | Analytical far-field extrapolation by fixed multipoles:
  | Hartree multipole sum: apparent total charge =   0.372806E-03
  Summing up the Hartree potential.
  | Estimated reciprocal-space cutoff momentum G_max:         1.90186217 bohr^-1 .
  | Reciprocal lattice points for long-range Hartree potential:    1050
  Time summed over all CPUs for potential: real work       10.773 s, elapsed       11.577 s
  | RMS charge density error from multipole expansion :   0.287255E-03
  | Average real-space part of the electrostatic potential :      0.00041144 eV

  Integrating Hamiltonian matrix: batch-based integration.
  Time summed over all CPUs for integration: real work       52.833 s, elapsed       55.653 s

  Updating Kohn-Sham eigenvalues and eigenvectors using ELSI and the ELPA eigensolver.
  Finished Cholesky decomposition
  | Time :     0.019 s
[...]
  | Electrostatic energy          :     -120231.02181446 Ha    -3271652.56342123 eV
  | Energy correction for multipole
  | error in Hartree potential    :          -0.00059912 Ha          -0.01630301 eV
  | Sum of eigenvalues per atom                           :     -164833.48449043 eV
  | Total energy (T->0) per atom                          :     -265769.74670793 eV  <-- do not rely on this value for anything but (periodic) metals
  | Electronic free energy per atom                       :     -265769.74695031 eV

  atomic forces [eV/Ang]:
  -----------------------
  atom #    1
   Hellmann-Feynman              :  0.869225E-02  0.111397E-01  0.646650E+01
   Ionic forces                  :  0.000000E+00  0.000000E+00  0.000000E+00
   Multipole                     : -0.440955E-04 -0.116881E-03 -0.707354E-01
   Pulay + GGA                   : -0.982756E-02 -0.114107E-01 -0.647073E+01
   Van der Waals                 : -0.123044E-03  0.679350E-04  0.756056E-01
   ----------------------------------------------------------------
   Total forces(   1)            : -0.130245E-02 -0.319960E-03  0.639737E-03
  atom #    2
   Hellmann-Feynman              : -0.772678E-02 -0.195212E-01  0.175818E+01
   Ionic forces                  :  0.000000E+00  0.000000E+00  0.000000E+00
   Multipole                     : -0.191387E-04  0.109383E-03 -0.418822E-02
   Pulay + GGA                   :  0.954498E-02  0.221251E-01 -0.178710E+01
   Van der Waals                 : -0.401539E-04  0.308031E-04  0.268733E-01
   ----------------------------------------------------------------
   Total forces(   2)            :  0.175891E-02  0.274411E-02 -0.623549E-02
  atom #    3
   Hellmann-Feynman              : -0.262914E-01  0.199956E-01 -0.647570E+01
   Ionic forces                  :  0.000000E+00  0.000000E+00  0.000000E+00
   Multipole                     :  0.197917E-03 -0.135515E-03  0.708759E-01
   Pulay + GGA                   :  0.286652E-01 -0.222367E-01  0.648083E+01
   Van der Waals                 :  0.128114E-03 -0.759406E-04 -0.755556E-01
   ----------------------------------------------------------------
   Total forces(   3)            :  0.269978E-02 -0.245257E-02  0.457068E-03
  atom #    4
   Hellmann-Feynman              :  0.348205E-01 -0.269594E-01 -0.178575E+01
   Ionic forces                  :  0.000000E+00  0.000000E+00  0.000000E+00
   Multipole                     : -0.502083E-04  0.140750E-04  0.492783E-02
   Pulay + GGA                   : -0.417450E-01  0.329091E-01  0.180494E+01
   Van der Waals                 :  0.379086E-04 -0.278056E-04 -0.269403E-01
   ----------------------------------------------------------------
   Total forces(   4)            : -0.693674E-02  0.593594E-02 -0.282296E-02
  atom #    5
   Hellmann-Feynman              : -0.257567E-01  0.232674E-01  0.766189E+01
   Ionic forces                  :  0.000000E+00  0.000000E+00  0.000000E+00
   Multipole                     :  0.202785E-03 -0.226741E-03 -0.581801E-01
   Pulay + GGA                   :  0.288529E-01 -0.256177E-01 -0.754259E+01
   Van der Waals                 : -0.171255E-03  0.118089E-03 -0.586600E-01
   ----------------------------------------------------------------
   Total forces(   5)            :  0.312778E-02 -0.245893E-02  0.246111E-02
  atom #    6
   Hellmann-Feynman              :  0.623162E-02  0.912767E-02 -0.767713E+01
   Ionic forces                  :  0.000000E+00  0.000000E+00  0.000000E+00
   Multipole                     : -0.646691E-04 -0.132340E-04  0.583183E-01
   Pulay + GGA                   : -0.622165E-02 -0.116371E-01  0.756563E+01
   Van der Waals                 :  0.168430E-03 -0.113081E-03  0.586769E-01
   ----------------------------------------------------------------
   Total forces(   6)            :  0.113724E-03 -0.263571E-02  0.549597E-02


  Analytical stress tensor components [eV]         xx                  yy                  zz                  xy                  xz                  yz
  -----------------------------------------------------------------------------------------------------------------------------------------------------------
    Nuclear Hellmann-Feynman      :     0.2965613829E+02    0.2965091972E+02   -0.4994623004E+02    0.9334432356E-03   -0.2056634458E-02    0.1199081834E-01
    Multipole Hellmann-Feynman    :    -0.7195408340E+02   -0.7197357596E+02   -0.1576219524E+03    0.7178336170E-03   -0.1003476058E-02    0.1834812054E-01
    On-site Multipole corrections :    -0.1311402042E+02   -0.1311413975E+02   -0.1311398328E+02   -0.1931505270E-06   -0.4172739394E-06   -0.1170798396E-03
    Strain deriv. of the orbitals :     0.5301976040E+02    0.5304244773E+02    0.2198625322E+03   -0.1651416420E-02    0.4570509562E-02   -0.2919525537E-01
    vdW correction   :     0.2363724270E+01    0.2367445805E+01    0.1142861263E+01    0.3253757649E-02   -0.1034114030E-02    0.5824410439E-03
  -----------------------------------------------------------------------------------------------------------------------------------------------------------
  Sum of all contributions        :    -0.2848086245E-01   -0.2690245503E-01    0.3232277574E+00    0.3253424931E-02    0.4758677413E-03    0.1609044715E-02

  +-------------------------------------------------------------------+
  |              Analytical stress tensor - Symmetrized               |
  |                  Cartesian components [eV/A**3]                   |
  +-------------------------------------------------------------------+
  |                x                y                z                |
  |                                                                   |
  |  x        -0.00002190       0.00000250       0.00000037           |
  |  y         0.00000250      -0.00002069       0.00000124           |
  |  z         0.00000037       0.00000124       0.00024858           |
  |                                                                   |
  |  Pressure:      -0.00006866   [eV/A**3]                           |
  |                                                                   |
  +-------------------------------------------------------------------+

 * Warning: Stress tensor is anisotropic. Be aware that pressure is an isotropic quantity.

  Timings for VdW correction (Tkatchenko-Scheffler 2009 or later):
  | CPU time:        1.236 s, Wall clock time:        1.233 s.
  Removing unitary transformations (pure translations, rotations) from forces on atoms.
  Atomic forces before filtering:
  | Net force on center of mass :  -0.539007E-03  0.812886E-03 -0.455537E-05 eV/A
  Removing unitary transformations (rotations) from forces on lattice.
  Lattice forces before filtering:
  | Net torque relative to origin:  -0.265200E-20 -0.176729E-19 -0.499083E-38 eV
  Atomic forces after filtering:
  | Net force on center of mass :   0.104535E-17  0.696899E-18  0.000000E+00 eV/A
  Lattice forces after filtering:
  | Net torque relative to origin:  -0.265200E-20 -0.176729E-19 -0.499083E-38 eV

  Energy and forces in a compact form:
  | Total energy uncorrected      :         -0.159461847879327E+07 eV
  | Total energy corrected        :         -0.159461848024756E+07 eV  <-- do not rely on this value for anything but (periodic) metals
  | Electronic free energy        :         -0.159461848170185E+07 eV
  Total atomic forces (unitary forces cleaned) [eV/Ang]:
  |   1         -0.121261751405250E-02         -0.455440981462732E-03          0.640495956666484E-03
  |   2          0.184874235783021E-02          0.260862736748606E-02         -0.623472791882981E-02
  |   3          0.278961412481918E-02         -0.258804805168514E-02          0.457827049294826E-03
  |   4         -0.684690697393637E-02          0.580046070834803E-02         -0.282219716148542E-02
  |   5          0.321760979085603E-02         -0.259440995391136E-02          0.246187145748809E-02
  |   6          0.203558214483455E-03         -0.277118908877486E-02          0.549673061686584E-02

  ------------------------------------ 
  Start decomposition of the XC Energy 
  ------------------------------------ 
  X and C from original XC functional choice 
  Hartree-Fock Energy :          0.000000000 Ha              0.000000000 eV
  X Energy            :      -1310.904690525 Ha         -35671.531576728 eV
  C Energy            :        -19.945168569 Ha           -542.735650857 eV
  Total XC Energy     :      -1330.849859094 Ha         -36214.267227584 eV
  ------------------------------------ 
  LDA X and C from self-consistent density 
  X Energy LDA        :      -1254.102927869 Ha         -34125.876972816 eV
  C Energy LDA        :        -34.832421775 Ha           -947.838421989 eV
  ------------------------------------ 
  End decomposition of the XC Energy 
  ------------------------------------ 

------------------------------------------------------------
  Relaxation / MD: End force evaluation.       :  max(cpu_time)    wall_clock(cpu1)
  | Time for this force evaluation             :      124.420 s         124.755 s

------------------------------------------------------------
  Geometry optimization: Attempting to predict improved coordinates.

  +-------------------------------------------------------------------+
  | Generalized derivatives on lattice vectors [eV/A]                 |
  +-------------------------------------------------------------------+
  |lattice_vector      -0.00686525      -0.00316874       0.00036255  |
  |lattice_vector       0.00096950      -0.00801678       0.00047949  |
  |lattice_vector       0.00000476       0.00001609       0.00323245  |
  +-------------------------------------------------------------------+
  | Forces on lattice vectors cleaned from atomic contributions [eV/A]|
  +-------------------------------------------------------------------+
  |lattice_vector       0.00719671       0.00239815       0.00058744  |
  |lattice_vector      -0.00130214       0.00879023      -0.00143309  |
  |lattice_vector       0.00003342      -0.00001567      -0.00329047  |
  +-------------------------------------------------------------------+
  | Projected forces for shape relaxation  [eV/A]                     |
  +-------------------------------------------------------------------+
  |lattice_vector       0.00719671       0.00000000       0.00000000  |
  |lattice_vector      -0.00413182       0.00715651       0.00000000  |
  |lattice_vector       0.00000000       0.00000000      -0.00329047  |
  +-------------------------------------------------------------------+
  Removing unitary transformations (pure translations, rotations) from forces on atoms.
  Atomic forces before filtering:
  | Net force on center of mass :   0.104535E-17  0.696899E-18  0.000000E+00 eV/A
  Removing unitary transformations (rotations) from forces on lattice.
  Lattice forces before filtering:
  | Net torque relative to origin:   0.000000E+00  0.000000E+00 -0.710250E-52 eV
  Atomic forces after filtering:
  | Net force on center of mass :  -0.653343E-18  0.000000E+00  0.000000E+00 eV/A
  Lattice forces after filtering:
  | Net torque relative to origin:   0.000000E+00  0.000000E+00 -0.710250E-52 eV
  || Forces on lattice vectors || =   0.719671E-02 eV/A.
  Net remaining forces (excluding translations, rotations) in present geometry:
  Maximum force component is  0.719671E-02 eV/A.
  Present geometry is converged.

------------------------------------------------------------
  Final atomic structure:
                         x [A]             y [A]             z [A]
  lattice_vector         3.87495042        0.00000000        0.00000000
  lattice_vector        -1.93745432        3.35576933        0.00000000
  lattice_vector        -0.00000000       -0.00000000       99.99459342

            atom         1.93677296       -1.11756755      -16.60870029  Te
            atom        -0.00128653        0.00052519      -14.79463651  Hf
            atom        -1.93701680        1.11807305       -6.27755741  Te
            atom         0.00216378       -0.00201551       -8.09128795  Hf
            atom         1.93776519       -1.11905125       -9.89878291  Te
            atom        -1.93839860        1.12003608      -12.98818092  Te

  Fractional coordinates:
                         L1                L2                L3
       atom_frac         0.33330621       -0.33302871       -0.16609598  Te
       atom_frac        -0.00025376        0.00015650       -0.14795436  Hf
       atom_frac        -0.33329382        0.33317935       -0.06277897  Te
       atom_frac         0.00025810       -0.00060061       -0.08091725  Hf
       atom_frac         0.33334121       -0.33347085       -0.09899318  Te
       atom_frac        -0.33335793        0.33376432       -0.12988883  Te
------------------------------------------------------------

------------------------------------------------------------------------------
  Final output of selected total energy values:

  The following output summarizes some interesting total energy values
  at the end of a run (AFTER all relaxation, molecular dynamics, etc.).

  | Total energy of the DFT / Hartree-Fock s.c.f. calculation      :       -1594618.478793274 eV
  | Final zero-broadening corrected energy (caution - metals only) :       -1594618.480247563 eV
  | For reference only, the value of 1 Hartree used in FHI-aims is :             27.211384500 eV

  Before relying on these values, please be sure to understand exactly which
  total energy value is referred to by a given number. Different objects may
  all carry the same name 'total energy'. Definitions:

  Total energy of the DFT / Hartree-Fock s.c.f. calculation:
  | Note that this energy does not include ANY quantities calculated after the
  | s.c.f. cycle, in particular not ANY RPA, MP2, etc. many-body perturbation terms.

  Final zero-broadening corrected energy:
  | For metallic systems only, a broadening of the occupation numbers at the Fermi
  | level can be extrapolated back to zero broadening by an electron-gas inspired
  | formula. For all systems that are not real metals, this value can be
  | meaningless and should be avoided.

------------------------------------------------------------------------------
  Methods described in the following list of references were used in this FHI-aims run.
  If you publish the results, please make sure to cite these reference if they apply.
  FHI-aims is an academic code, and for our developers (often, Ph.D. students
  and postdocs), scientific credit in the community is essential.
  Thank you for helping us!

  For any use of FHI-aims, please cite:

    Volker Blum, Ralf Gehrke, Felix Hanke, Paula Havu, Ville Havu,
    Xinguo Ren, Karsten Reuter, and Matthias Scheffler
    'Ab initio molecular simulations with numeric atom-centered orbitals'
    Computer Physics Communications 180, 2175-2196 (2009)
    http://dx.doi.org/10.1016/j.cpc.2009.06.022


  For the analytical stress tensor used in your run, please cite:

    Franz Knuth, Christian Carbogno, Viktor Atalla, Volker Blum, Matthias Scheffler
    'All-electron formalism for total energy strain derivatives and
    stress tensor components for numeric atom-centered orbitals'
    Computer Physics Communications 190, 33-50 (2015).
    http://dx.doi.org/10.1016/j.cpc.2015.01.003


  The scalable eigensolver library ELPA was used in your run.
  ELPA is essential especially for large systems on hundreds or thousands of CPUs.
  For ELPA, please cite:

    Andreas Marek, Volker Blum, Rainer Johanni, Ville Havu, Bruno Lang,
    Thomas Auckenthaler, Alexander Heinecke, Hans-Joachim Bungartz, and Hermann Lederer,
    'The ELPA Library - Scalable Parallel Eigenvalue Solutions
    for Electronic Structure Theory and Computational Science'
    The Journal of Physics: Condensed Matter 26, 213201 (2014).
    http://dx.doi.org/10.1088/0953-8984/26/21/213201


  The ELSI infrastructure was used in your run to solve the Kohn-Sham electronic structure.
  Please check out http://elsi-interchange.org to learn more.
  If scalability is important for your project, please acknowledge ELSI by citing:

    V. W-z. Yu, F. Corsetti, A. Garcia, W. P. Huhn, M. Jacquelin, W. Jia,
    B. Lange, L. Lin, J. Lu, W. Mi, A. Seifitokaldani, A. Vazquez-Mayagoitia,
    C. Yang, H. Yang, and V. Blum
    'ELSI: A unified software interface for Kohn-Sham electronic structure solvers'
    Computer Physics Communications 222, 267-285 (2018).
    http://dx.doi.org/10.1016/j.cpc.2017.09.007


  For the real-space grid partitioning and parallelization used in this calculation, please cite:

    Ville Havu, Volker Blum, Paula Havu, and Matthias Scheffler,
    'Efficient O(N) integration for all-electron electronic structure calculation'
    'using numerically tabulated basis functions'
    Journal of Computational Physics 228, 8367-8379 (2009).
    http://dx.doi.org/10.1016/j.jcp.2009.08.008

  Of course, there are many other important community references, e.g., those cited in the
  above references. Our list is limited to references that describe implementations in the
  FHI-aims code. The reason is purely practical (length of this list) - please credit others as well.

------------------------------------------------------------
          Leaving FHI-aims.
          Date     :  20191127, Time     :  215205.510

          Computational steps:
          | Number of self-consistency cycles          :          489
          | Number of SCF (re)initializations          :           17
          | Number of relaxation steps                 :           16

          Detailed time accounting                     :  max(cpu_time)    wall_clock(cpu1)
          | Total time                                 :     2610.988 s        2609.144 s
          | Preparation time                           :        0.704 s           0.704 s
          | Boundary condition initalization           :       16.132 s          16.077 s
          | Grid partitioning                          :        2.984 s           2.970 s
          | Preloading free-atom quantities on grid    :        1.268 s           1.248 s
          | Free-atom superposition energy             :        0.196 s           0.173 s
          | Total time for integrations                :      447.884 s         446.579 s
          | Total time for solution of K.-S. equations :      305.928 s         305.303 s
          | Total time for EV reorthonormalization     :        2.164 s           1.632 s
          | Total time for density & force components  :     1666.008 s        1663.825 s
          | Total time for mixing & preconditioning    :       22.524 s          21.933 s
          | Total time for Hartree multipole update    :        2.004 s           1.368 s
          | Total time for Hartree multipole sum       :      125.064 s         123.954 s
          | Total time for total energy evaluation     :        1.960 s           0.516 s
          | Total time for scaled ZORA corrections     :        0.000 s           0.000 s
          | Total time for vdW correction              :       20.576 s          20.523 s

          Partial memory accounting:
          | Residual value for overall tracked memory usage across tasks :           0.000 MB (should be 0.000 MB)
          | Peak values for overall tracked memory usage (after allocating wave_pulay):
          |   Minimum:      128.680 MB (on task 77)
          |   Maximum:      146.101 MB (on task  2)
          |   Average:      137.477 MB
          | Largest tracked array allocation (density_matrix_con):
          |   Minimum:       28.005 MB (on task 77)
          |   Maximum:       35.213 MB (on task 26)
          |   Average:       32.307 MB
          Note:  These values currently only include a subset of arrays which are explicitly tracked.
          The "true" memory usage will be greater.

          Have a nice day.
------------------------------------------------------------
