  MPI-parallelism will be employed.
------------------------------------------------------------
          Invoking FHI-aims ...
          Version 171221_1
          Compiled on 2018/11/06 at 11:18:49 on host headnode.

          When using FHI-aims, please cite the following reference:

          Volker Blum, Ralf Gehrke, Felix Hanke, Paula Havu,
          Ville Havu, Xinguo Ren, Karsten Reuter, and Matthias Scheffler,
          'Ab Initio Molecular Simulations with Numeric Atom-Centered Orbitals',
          Computer Physics Communications 180, 2175-2196 (2009)

          For any questions about FHI-aims, please visit the aimsclub website
          with its forums and wiki. Contributions to both the forums and the
          wiki are warmly encouraged - they are for you, and everyone is welcome there.

------------------------------------------------------------



  Date     :  20191127, Time     :  223908.357
  Time zero on CPU 1             :   0.460000000000000E+00  s.
  Internal wall clock time zero  :           344126348.357  s.

  FHI-aims created a unique identifier for this run for later identification
  aims_uuid : 4369D5C6-2305-4BAF-A0CA-CBE443045BB6

  Using       80 parallel tasks.
  Task        0 on host t030 reporting.
  Task        1 on host t030 reporting.
  Task        2 on host t030 reporting.
  Task        3 on host t030 reporting.
  Task        4 on host t030 reporting.
  Task        5 on host t030 reporting.
  Task        6 on host t030 reporting.
  Task        7 on host t030 reporting.
  Task        8 on host t030 reporting.
  Task        9 on host t030 reporting.
  Task       10 on host t030 reporting.
  Task       11 on host t030 reporting.
  Task       12 on host t030 reporting.
  Task       13 on host t030 reporting.
  Task       14 on host t030 reporting.
  Task       15 on host t030 reporting.
  Task       16 on host t030 reporting.
  Task       17 on host t030 reporting.
  Task       18 on host t030 reporting.
  Task       19 on host t030 reporting.
  Task       20 on host t024 reporting.
  Task       21 on host t024 reporting.
  Task       22 on host t024 reporting.
  Task       23 on host t024 reporting.
  Task       24 on host t024 reporting.
  Task       25 on host t024 reporting.
  Task       26 on host t024 reporting.
  Task       27 on host t024 reporting.
  Task       28 on host t024 reporting.
  Task       29 on host t024 reporting.
  Task       30 on host t024 reporting.
  Task       31 on host t024 reporting.
  Task       32 on host t024 reporting.
  Task       33 on host t024 reporting.
  Task       34 on host t024 reporting.
  Task       35 on host t024 reporting.
  Task       36 on host t024 reporting.
  Task       37 on host t024 reporting.
  Task       38 on host t024 reporting.
  Task       39 on host t024 reporting.
  Task       40 on host t019 reporting.
  Task       41 on host t019 reporting.
  Task       42 on host t019 reporting.
  Task       43 on host t019 reporting.
  Task       44 on host t019 reporting.
  Task       45 on host t019 reporting.
  Task       46 on host t019 reporting.
  Task       47 on host t019 reporting.
  Task       48 on host t019 reporting.
  Task       49 on host t019 reporting.
  Task       50 on host t019 reporting.
  Task       51 on host t019 reporting.
  Task       52 on host t019 reporting.
  Task       53 on host t019 reporting.
  Task       54 on host t019 reporting.
  Task       55 on host t019 reporting.
  Task       56 on host t019 reporting.
  Task       57 on host t019 reporting.
  Task       58 on host t019 reporting.
  Task       59 on host t019 reporting.
  Task       60 on host t018 reporting.
  Task       61 on host t018 reporting.
  Task       62 on host t018 reporting.
  Task       63 on host t018 reporting.
  Task       64 on host t018 reporting.
  Task       65 on host t018 reporting.
  Task       66 on host t018 reporting.
  Task       67 on host t018 reporting.
  Task       68 on host t018 reporting.
  Task       69 on host t018 reporting.
  Task       70 on host t018 reporting.
  Task       71 on host t018 reporting.
  Task       72 on host t018 reporting.
  Task       73 on host t018 reporting.
  Task       74 on host t018 reporting.
  Task       75 on host t018 reporting.
  Task       76 on host t018 reporting.
  Task       77 on host t018 reporting.
  Task       78 on host t018 reporting.
  Task       79 on host t018 reporting.

  Performing system and environment tests:
  | Environment variable OMP_NUM_THREADS correctly set to 1.
  | Stacksize not measured: no C compiler
  | Checking for scalapack...
  | Testing pdtran()...
  | All pdtran() tests passed.

  Obtaining array dimensions for all initial allocations:
  
  -----------------------------------------------------------------------
  Parsing control.in (first pass over file, find array dimensions only).
  The contents of control.in will be repeated verbatim below
  unless switched off by setting 'verbatim_writeout .false.' .
  in the first line of control.in .
  -----------------------------------------------------------------------
  
  #===============================================================================
  # FHI-aims file: ./control.in
  # Created using the Atomic Simulation Environment (ASE)
  # Wed Nov 27 20:14:07 2019
  #
  # List of parameters used to initialize the calculator:
  #     relativistic : ('atomic_zora', 'scalar')
  #     species_dir : /chemsoft/FHI-aims/stable/species_defaults/tight
  #     adjust_scf : once 2
  #     spin : none
  #     k_grid : [18, 18, 1]
  #     xc : pbe
  #===============================================================================
  relativistic                       atomic_zora scalar
  adjust_scf                         once 2
  ### geometry optimisation section
  relax_geometry    bfgs    1E-2
  relax_unit_cell       fixed_angles
  spin                               none
  k_grid                             18 18 1
  xc                                 pbe
  many_body_dispersion
  #===============================================================================
  
  ################################################################################
  #
  #  FHI-aims code project
  # Volker Blum, Fritz Haber Institute Berlin, 2010
  #
  #  Suggested "tight" defaults for P atom (to be pasted into control.in file)
  #
  #  Revised Jan 04, 2011, following tests (SiC) done by Lydia Nemec:
  #     d function of tier 2 now enabled by default.
  #
  ################################################################################
    species        P
  #     global species definitions
      nucleus             15
      mass                30.973762
  #
      l_hartree           6
  #
      cut_pot             4.0          2.0  1.0
      basis_dep_cutoff    1e-4
  #
      radial_base         43 7.0
      radial_multiplier   2
      angular_grids       specified
        division   0.2995   50
        division   0.5998  110
        division   0.9240  194
        division   1.0921  302
        division   1.2863  434
  #      division   1.3165  590
  #      division   1.4113  770
  #      division   1.5128  974
  #      division   2.4980 1202
        outer_grid  434
  ################################################################################
  #
  #  Definition of "minimal" basis
  #
  ################################################################################
  #     valence basis states
      valence      3  s   2.
      valence      3  p   3.
  #     ion occupancy
      ion_occ      3  s   1.
      ion_occ      3  p   2.
  ################################################################################
  #
  #  Suggested additional basis functions. For production calculations,
  #  uncomment them one after another (the most important basis functions are
  #  listed first).
  #
  #  Constructed for dimers: 1.625 A, 1.875 A, 2.5 A, 3.25 A, 4.0 A
  #
  ################################################################################
  #  "First tier" - improvements: -726.20 meV to -35.91 meV
       ionic 3 d auto
       ionic 3 p auto
       hydro 4 f 6.2
       hydro 5 g 8.6
       ionic 3 s auto
  #  "Second tier" - improvements: -16.02 meV to -1.71 meV
       hydro 4 d 6.2
       hydro 4 p 9.2
       hydro 5 f 9.8
       hydro 1 s 0.7
       hydro 5 g 13.2
  #  "Third tier" - improvements: -1.82 meV to -0.20 meV
  #     hydro 3 p 2.5
  #     hydro 4 d 6.4
  #     hydro 5 f 11.2
  #     hydro 2 s 1.5
  #  "Fourth tier" - improvements: -0.91 meV to -0.17 meV
  #     hydro 3 d 16.8
  #     hydro 5 g 18
  #     hydro 4 p 4.5
  #     hydro 3 s 2.1
  #  Further basis functions that fell out of the optimization - < -0.09 meV
  #     hydro 4 p 10.4
  #     hydro 4 d 17.6
  #     hydro 4 s 11.2
  ################################################################################
  #
  # For methods that use the localized form of the "resolution of identity" for
  # the two-electron Coulomb operator (RI_method LVL), particularly Hartree-Fock and
  # hybrid density functional calculations, the highest accuracy can be obtained by
  # uncommenting the line beginning with "for_aux"  below, thus adding an extra g radial
  # function to the construction of the product basis set for the expansion.
  # See Ref. New J. Phys. 17, 093020 (2015) for more information, particularly Figs. 1 and 6.
  #
  ################################################################################
  #
  # for_aux hydro 5 g 6.0
  ################################################################################
  #
  #  FHI-aims code project
  # Volker Blum, Fritz Haber Institute Berlin, 2009
  #
  #  Suggested "tight" defaults for Pd atom (to be pasted into control.in file)
  #
  ################################################################################
    species        Pd
  #     global species definitions
      nucleus             46
      mass                106.42
  #
      l_hartree           6
  #
      cut_pot             4.0  2.0  1.0
      basis_dep_cutoff    1e-4
  #
      radial_base         62 7.0
      radial_multiplier   2
      angular_grids specified
        division   0.3627   50
        division   0.7349  110
        division   1.0624  194
        division   1.2496  302
        division   1.6740  434
  #      division   2.0126  590
  #      division   2.0830  770
  #      division   2.7936 1202
  #       outer_grid  974
        outer_grid  434
  ################################################################################
  #
  #  Definition of "minimal" basis
  #
  ################################################################################
  #     valence basis states
      valence      5  s   1.
      valence      4  p   6.
      valence      4  d   9.
  #     ion occupancy
      ion_occ     5  s   0.
      ion_occ     4  p   6.
      ion_occ     4  d   8.
  ################################################################################
  #
  #  Suggested additional basis functions. For production calculations,
  #  uncomment them one after another (the most important basis functions are
  #  listed first).
  #
  #  Constructed for dimers: 2.0 A, 2.275 A, 2.75 A, 3.75 A
  #
  ################################################################################
  #  "First tier" - max. impr. -120.76  meV, min. impr. -5.71 meV
       ionic 5 p auto
       hydro 4 f 8
       hydro 5 g 10
       hydro 3 s 2.6
       hydro 3 d 2.5
  #  "Second tier" - max. impr. -5.00  meV, min. impr. -0.62 meV
       hydro 5 f 17.2
       hydro 6 h 14
       hydro 4 d 4
       hydro 5 f 7.6
       hydro 3 p 3.3
       hydro 4 s 9.4
  #  "Third tier" - max. impr. -0.54  meV, min. impr. -0.14 meV
  #     hydro 4 f 20
  #     hydro 5 g 12.8
  #     hydro 5 d 9.8
  #     hydro 6 h 15.2
  #     hydro 5 s 10
  #     hydro 6 p 9.8
  #  "Fourth tier" - max. impr. -0.15  meV, min. impr. -0.05 meV
  #     hydro 5 f 9.2
  #     hydro 2 s 5.6
  #     hydro 5 f 43.2
  #     hydro 5 d 13.2
  #     hydro 5 g 14
  #     hydro 4 p 4.7
  ################################################################################
  #
  #  FHI-aims code project
  # Volker Blum, Fritz Haber Institute Berlin, 2009
  #
  #  Suggested "tight" defaults for S atom (to be pasted into control.in file)
  #
  #  Revised Jan 04, 2011, following tests (SiC) done by Lydia Nemec:
  #     d and g functions of tier 2 now enabled by default.
  #
  ################################################################################
    species        S
  #     global species definitions
      nucleus             16
      mass                32.065
  #
      l_hartree           6
  #
      cut_pot             4.0          2.0  1.0
      basis_dep_cutoff    1e-4
  #
      radial_base         44 7.0
      radial_multiplier   2
      angular_grids       specified
        division   0.4665  110
        division   0.5810  194
        division   0.7139  302
        division   0.8274  434
  #      division   0.9105  590
  #      division   1.0975  770
  #      division   1.2028  974
  #      outer_grid  974
        outer_grid  434
  ################################################################################
  #
  #  Definition of "minimal" basis
  #
  ################################################################################
  #     valence basis states
      valence      3  s   2.
      valence      3  p   4.
  #     ion occupancy
      ion_occ      3  s   1.
      ion_occ      3  p   3.
  ################################################################################
  #
  #  Suggested additional basis functions. For production calculations,
  #  uncomment them one after another (the most important basis functions are
  #  listed first).
  #
  #  Constructed for dimers: 1.6 A, 1.9 A, 2.5 A, 3.25 A, 4.0 A
  #
  ################################################################################
  #  "First tier" - improvements: -652.81 meV to -45.53 meV
       ionic 3 d auto
       hydro 2 p 1.8
       hydro 4 f 7
       ionic 3 s auto
  #  "Second tier" - improvements: -30.20 meV to -1.74 meV
       hydro 4 d 6.2
       hydro 5 g 10.8
       hydro 4 p 4.9
       hydro 5 f 10
       hydro 1 s 0.8
  #  "Third tier" - improvements: -1.04 meV to -0.20 meV
  #     hydro 3 d 3.9
  #     hydro 3 d 2.7
  #     hydro 5 g 12
  #     hydro 4 p 10.4
  #     hydro 5 f 12.4
  #     hydro 2 s 1.9
  #  "Fourth tier" - improvements: -0.35 meV to -0.06 meV
  #     hydro 4 d 10.4
  #     hydro 4 p 7.2
  #     hydro 4 d 10
  #     hydro 5 g 19.2
  #     hydro 4 s 12
  #
  ################################################################################
  #
  # For methods that use the localized form of the "resolution of identity" for
  # the two-electron Coulomb operator (RI_method LVL), particularly Hartree-Fock and
  # hybrid density functional calculations, the highest accuracy can be obtained by
  # uncommenting the line beginning with "for_aux"  below, thus adding an extra g radial
  # function to the construction of the product basis set for the expansion.
  # See Ref. New J. Phys. 17, 093020 (2015) for more information, particularly Figs. 1 and 6.
  #
  ################################################################################
  #
  # for_aux hydro 5 g 6.0
  
  -----------------------------------------------------------------------
  Completed first pass over input file control.in .
  -----------------------------------------------------------------------
  
  
  -----------------------------------------------------------------------
  Parsing geometry.in (first pass over file, find array dimensions only).
  The contents of geometry.in will be repeated verbatim below
  unless switched off by setting 'verbatim_writeout .false.' .
  in the first line of geometry.in .
  -----------------------------------------------------------------------
  
  #=======================================================
  # FHI-aims file: ./geometry.in
  # Created using the Atomic Simulation Environment (ASE)
  # Wed Nov 27 20:14:07 2019
  #=======================================================
  lattice_vector 5.8311599999999997 0.0000000000000000 0.0000000000000000
  lattice_vector 0.0000000000000000 5.8655400000000002 0.0000000000000000
  lattice_vector 0.0000000000000000 0.0000000000000000 100.0000000000000000
  atom 2.2212637800000001 2.5704555899999999 -21.2974121799999985 P
  atom 0.0000000000000000 -0.0000000000000000 -13.8958999999999993 Pd
  atom 0.0811697500000000 2.9327700000000001 -23.9076180299999983 Pd
  atom -2.1400940300000002 -0.3623144100000000 -16.5061058600000017 P
  atom -2.1400940300000002 -0.7624615400000000 -14.3494621799999997 P
  atom 0.0811697500000000 1.8079940500000000 -20.8438499999999998 Pd
  atom 0.0000000000000000 -1.1247759500000001 -16.9596680299999996 Pd
  atom 2.2212637800000001 2.1703084600000002 -23.4540558600000004 P
  atom -2.8344102499999999 1.8079940500000000 -16.9596680299999996 Pd
  atom -0.6193858200000000 0.6681436600000000 -24.5515540399999992 S
  atom -2.2150244400000001 -2.2646263400000000 -24.5515540399999992 S
  atom 2.9155799999999998 -1.1247759500000001 -20.8438499999999998 Pd
  atom 2.9155799999999998 -0.0000000000000000 -23.9076180299999983 Pd
  atom 0.7005555600000000 1.1398503900000001 -17.6036040400000005 S
  atom -0.6193858200000000 -1.7929196100000000 -20.1999139899999989 S
  atom -2.8344102499999999 2.9327700000000001 -13.8958999999999993 Pd
  atom 0.7754859700000000 -0.7624615400000000 -23.4540558600000004 P
  atom 0.7005555600000000 -2.2646263400000000 -13.2519639900000001 S
  atom -2.2150244400000001 1.1398503900000001 -20.1999139899999989 S
  atom -0.6943162200000000 2.1703084600000002 -14.3494621799999997 P
  atom -0.6943162200000000 2.5704555899999999 -16.5061058600000017 P
  atom 2.2961941800000001 -1.7929196100000000 -17.6036040400000005 S
  atom 2.2961941800000001 0.6681436600000000 -13.2519639900000001 S
  atom 0.7754859700000000 -0.3623144100000000 -21.2974121799999985 P
  
  -----------------------------------------------------------------------
  Completed first pass over input file geometry.in .
  -----------------------------------------------------------------------
  

  Basic array size parameters:
  | Number of species                 :        3
  | Number of atoms                   :       24
  | Number of lattice vectors         :        3
  | Max. basis fn. angular momentum   :        5
  | Max. atomic/ionic basis occupied n:        5
  | Max. number of basis fn. types    :        3
  | Max. radial fns per species/type  :       10
  | Max. logarithmic grid size        :     1444
  | Max. radial integration grid size :      125
  | Max. angular integration grid size:      434
  | Max. angular grid division number :        8
  | Radial grid for Hartree potential :     1444
  | Number of spin channels           :        1

------------------------------------------------------------
          Reading file control.in.
------------------------------------------------------------
  Scalar relativistic treatment of kinetic energy: on-site free-atom approximation to ZORA.
  S.C.F. convergence parameters will be adjusted in iteration number     2 of the first full s.c.f. cycle only.
  Geometry relaxation: Modified BFGS - TRM (trust radius method, i.e., trusted quadratic extrapolation).
  Convergence accuracy for geometry relaxation: Maximum force <   0.100000E-01 eV/A.
  Spin treatment: No spin polarisation.
  Found k-point grid:        18        18         1
  XC: Using PBE gradient-corrected functionals.
  Using the default MBD implementation with analytical forces
 
  Reading configuration options for species P                   .
  | Found nuclear charge :  15.0000
  | Found atomic mass :    30.9737620000000      amu
  | Found l_max for Hartree potential  :   6
  | Found cutoff potl. onset [A], width [A], scale factor :    4.00000    2.00000    1.00000
  | Threshold for basis-dependent cutoff potential is   0.100000E-03
  | Found data for basic radial integration grid :    43 points, outermost radius =    7.000 A
  | Found multiplier for basic radial grid :   2
  | Found angular grid specification: user-specified.
  | Specified grid contains     6 separate shells.
  | Check grid settings after all constraints further below.
  | Found free-atom valence shell :  3 s   2.000
  | Found free-atom valence shell :  3 p   3.000
  | Found free-ion valence shell :  3 s   1.000
  | Found free-ion valence shell :  3 p   2.000
  | Found ionic basis function :  3 d , default cutoff radius.
  | Found ionic basis function :  3 p , default cutoff radius.
  | Found hydrogenic basis function :  4 f   6.200
  | Found hydrogenic basis function :  5 g   8.600
  | Found ionic basis function :  3 s , default cutoff radius.
  | Found hydrogenic basis function :  4 d   6.200
  | Found hydrogenic basis function :  4 p   9.200
  | Found hydrogenic basis function :  5 f   9.800
  | Found hydrogenic basis function :  1 s   0.700
  | Found hydrogenic basis function :  5 g  13.200
  Species P                   : Missing cutoff potential type.
  Defaulting to exp(1/x)/(1-x)^2 type cutoff potential.
  Species P : No 'logarithmic' tag. Using default grid for free atom:
  | Default logarithmic grid data [bohr] : 0.1000E-03 0.1000E+03 0.1012E+01
  | Will include ionic basis functions of  2.0-fold positive P                    ion.
  Species P : On-site basis accuracy parameter (for Gram-Schmidt orthonormalisation) not specified.
  Using default value basis_acc =  0.1000000E-03.
  Species P                   : Using default innermost maximum threshold i_radial=  2 for radial functions.
  Species P                   : Default cutoff onset for free atom density etc. : 0.40000000E+01 AA.
  Species P                   : Basic radial grid will be enhanced according to radial_multiplier =   2, to contain    87 grid points.
 
  Reading configuration options for species Pd                  .
  | Found nuclear charge :  46.0000
  | Found atomic mass :    106.420000000000      amu
  | Found l_max for Hartree potential  :   6
  | Found cutoff potl. onset [A], width [A], scale factor :    4.00000    2.00000    1.00000
  | Threshold for basis-dependent cutoff potential is   0.100000E-03
  | Found data for basic radial integration grid :    62 points, outermost radius =    7.000 A
  | Found multiplier for basic radial grid :   2
  | Found angular grid specification: user-specified.
  | Specified grid contains     6 separate shells.
  | Check grid settings after all constraints further below.
  | Found free-atom valence shell :  5 s   1.000
  | Found free-atom valence shell :  4 p   6.000
  | Found free-atom valence shell :  4 d   9.000
  | Found free-ion valence shell :  5 s   0.000
  | Found free-ion valence shell :  4 p   6.000
  | Found free-ion valence shell :  4 d   8.000
  | Found ionic basis function :  5 p , default cutoff radius.
  | Found hydrogenic basis function :  4 f   8.000
  | Found hydrogenic basis function :  5 g  10.000
  | Found hydrogenic basis function :  3 s   2.600
  | Found hydrogenic basis function :  3 d   2.500
  | Found hydrogenic basis function :  5 f  17.200
  | Found hydrogenic basis function :  6 h  14.000
  | Found hydrogenic basis function :  4 d   4.000
  | Found hydrogenic basis function :  5 f   7.600
  | Found hydrogenic basis function :  3 p   3.300
  | Found hydrogenic basis function :  4 s   9.400
  Species Pd                  : Missing cutoff potential type.
  Defaulting to exp(1/x)/(1-x)^2 type cutoff potential.
  Species Pd: No 'logarithmic' tag. Using default grid for free atom:
  | Default logarithmic grid data [bohr] : 0.1000E-03 0.1000E+03 0.1012E+01
  | Will include ionic basis functions of  2.0-fold positive Pd                   ion.
  Species Pd: On-site basis accuracy parameter (for Gram-Schmidt orthonormalisation) not specified.
  Using default value basis_acc =  0.1000000E-03.
  Species Pd                  : Using default innermost maximum threshold i_radial=  2 for radial functions.
  Species Pd                  : Default cutoff onset for free atom density etc. : 0.40000000E+01 AA.
  Species Pd                  : Basic radial grid will be enhanced according to radial_multiplier =   2, to contain   125 grid points.
 
  Reading configuration options for species S                   .
  | Found nuclear charge :  16.0000
  | Found atomic mass :    32.0650000000000      amu
  | Found l_max for Hartree potential  :   6
  | Found cutoff potl. onset [A], width [A], scale factor :    4.00000    2.00000    1.00000
  | Threshold for basis-dependent cutoff potential is   0.100000E-03
  | Found data for basic radial integration grid :    44 points, outermost radius =    7.000 A
  | Found multiplier for basic radial grid :   2
  | Found angular grid specification: user-specified.
  | Specified grid contains     5 separate shells.
  | Check grid settings after all constraints further below.
  | Found free-atom valence shell :  3 s   2.000
  | Found free-atom valence shell :  3 p   4.000
  | Found free-ion valence shell :  3 s   1.000
  | Found free-ion valence shell :  3 p   3.000
  | Found ionic basis function :  3 d , default cutoff radius.
  | Found hydrogenic basis function :  2 p   1.800
  | Found hydrogenic basis function :  4 f   7.000
  | Found ionic basis function :  3 s , default cutoff radius.
  | Found hydrogenic basis function :  4 d   6.200
  | Found hydrogenic basis function :  5 g  10.800
  | Found hydrogenic basis function :  4 p   4.900
  | Found hydrogenic basis function :  5 f  10.000
  | Found hydrogenic basis function :  1 s   0.800
  Species S                   : Missing cutoff potential type.
  Defaulting to exp(1/x)/(1-x)^2 type cutoff potential.
  Species S : No 'logarithmic' tag. Using default grid for free atom:
  | Default logarithmic grid data [bohr] : 0.1000E-03 0.1000E+03 0.1012E+01
  | Will include ionic basis functions of  2.0-fold positive S                    ion.
  Species S : On-site basis accuracy parameter (for Gram-Schmidt orthonormalisation) not specified.
  Using default value basis_acc =  0.1000000E-03.
  Species S                   : Using default innermost maximum threshold i_radial=  2 for radial functions.
  Species S                   : Default cutoff onset for free atom density etc. : 0.40000000E+01 AA.
  Species S                   : Basic radial grid will be enhanced according to radial_multiplier =   2, to contain    89 grid points.
  | MBD: Using the same k-grid sampling as DFT
 
  Finished reading input file 'control.in'. Consistency checks are next.
 
  MPI_IN_PLACE appears to work with this MPI implementation.
  | Keeping use_mpi_in_place .true. (see manual).
  Target number of points in a grid batch is not set. Defaulting to  100
  Method for grid partitioning is not set. Defaulting to parallel hash+maxmin partitioning.
  Batch size limit is not set. Defaulting to    200
  By default, will store active basis functions for each batch.
  If in need of memory, prune_basis_once .false. can be used to disable this option.
  communication_type for Hartree potential was not specified.
  Defaulting to calc_hartree .
  Defaulting to Pulay charge density mixer.
  Pulay mixer: Number of relevant iterations not set.
  Defaulting to    8 iterations.
  Pulay mixer: Number of initial linear mixing iterations not set.
  Defaulting to    0 iterations.
  Work space size for distributed Hartree potential not set.
  Defaulting to   0.200000E+03 MB.
  Mixing parameter for charge density mixing has not been set.
  Using default: charge_mix_param =     0.0500.
  The mixing parameter will be adjusted in iteration number     2 of the first full s.c.f. cycle only.
  Algorithm-dependent basis array size parameters:
  | n_max_pulay                         :        8
 * Notice: The s.c.f. convergence criterion sc_accuracy_rho was not provided.
 * We used to stop in this case, and ask the user to provide reasonable
 * scf convergence criteria. However, this led some users to employ criteria
 * that led to extremely long run times, e.g., for simple relaxation.
 * We now preset a default value for sc_accuracy_rho if it is not set.
 * You may still wish to check if this setting is too tight or too loose for your needs.
 * Based on n_atoms, FHI-aims chose sc_accuracy_rho =  0.400000E-05 .
  Maximum number of self-consistency iterations not provided.
  Presetting  1000 iterations.
  Presetting      1001 iterations before the initial mixing cycle
  is restarted anyway using the sc_init_iter criterion / keyword.
  Presetting a factor      1.000 between actual scf density residual
  and density convergence criterion sc_accuracy_rho below which sc_init_iter
  takes no effect.
 * No s.c.f. convergence criteria (sc_accuracy_*) were provided in control.in.
 * The run will proceed with a reasonable default guess, but please check whether.
 * the s.c.f. cycles seem to take too much or too little time.
  No maximum number of relaxation steps, defaulting to     1000
  Default initial Hessian is Lindh matrix (thres = 15.00) plus  0.200000E+01 eV/A^2 times unity.
  No maximum energy tolerance for TRM/BFGS moves, defaulting to   0.200000E-03
  No harmonic length scale. Defaulting to   0.250000E-01 A.
  No trust radius initializer. Defaulting to   0.200000E+00 A.
  Unit cell relaxation: Restricted relaxation with fixed angles between lattice vectors.
  Unit cell relaxation: Analytical stress will be used.
  Analytical stress will be computed.
  Analytical stress calculation: Only the upper triangle is calculated.
                                 Final output is symmetrized.
  Analytical stress calculation: scf convergence accuracy of stress not set.
                                 Analytical stress self-consistency will not be checked explicitly.
                                 Be sure to set other criteria like sc_accuracy_rho tight enough.
  Force calculation: scf convergence accuracy of forces not set.
  Defaulting to 'sc_accuracy_forces not_checked'.
  Handling of forces: Unphysical translation and rotation will be removed from forces.
  No accuracy limit for integral partition fn. given. Defaulting to  0.1000E-14.
  No threshold value for u(r) in integrations given. Defaulting to  0.1000E-05.
  No occupation type (smearing scheme) given. Defaulting to Gaussian broadening, width =  0.1000E-01 eV.
  The width will be adjusted in iteration number     2 of the first full s.c.f. cycle only.
  S.C.F. convergence parameters will be adjusted in iteration number     2 of the first full s.c.f. cycle only.
  No accuracy for occupation numbers given. Defaulting to  0.1000E-12.
  No threshold value for occupation numbers given. Defaulting to  0.0000E+00.
  No accuracy for fermi level given. Defaulting to  0.1000E-19.
  Maximum # of iterations to find E_F not set. Defaulting to  200.
  Preferred method for the eigenvalue solver ('KS_method') not specified in 'control.in'.
  Defaulting to serial version, 'lapack_fast', since more k-points than CPUs available.
  Will not use alltoall communication since running on < 1024 CPUs.
  Threshold for basis singularities not set.
  Default threshold for basis singularities:  0.1000E-04
  partition_type (choice of integration weights) for integrals was not specified.
  | Using a version of the partition function of Stratmann and coworkers ('stratmann_smoother').
  | At each grid point, the set of atoms used to build the partition table is smoothly restricted to
  | only those atoms whose free-atom density would be non-zero at that grid point.
  Partitioning for Hartree potential was not defined. Using partition_type for integrals.
  | Adjusted default value of keyword multip_moments_threshold to:       0.10000000E-11
  | This value may affect high angular momentum components of the Hartree potential in periodic systems.
  Angular momentum expansion for Kerker preconditioner not set explicitly.
  | Using default value of   0
  No explicit requirement for turning off preconditioner.
  | By default, it will be turned off when the charge convergence reaches
  | sc_accuracy_rho  =   0.400000E-05
  No special mixing parameter while Kerker preconditioner is on.
  Using default: charge_mix_param =     0.0500.
  No q(lm)/r^(l+1) cutoff set for long-range Hartree potential.
  | Using default value of  0.100000E-09 .
  | Verify using the multipole_threshold keyword.
  Defaulting to new monopole extrapolation.
  Density update method: automatic selection selected.
  Using density matrix based charge density update.
  Using density matrix based charge density update.
  Using packed matrix style: index .
  Geometry relaxation: A file "geometry.in.next_step" is written out by default after each step.
  | This file contains the geometry of the current relaxation step as well as
  | the current Hessian matrix needed to restart the relaxation algorithm.
  | If you do not want part or all of this information, use the keywords
  | "write_restart_geometry" or "hessian_to_restart_geometry" to switch the output off.
  Defaulting to use time-reversal symmetry for k-point grid.
------------------------------------------------------------


------------------------------------------------------------
          Reading geometry description geometry.in.
------------------------------------------------------------
  Input structure read successfully.
  The structure contains       24 atoms,  and a total of        616.000 electrons.

  Input geometry:
  | Unit cell:
  |        5.83116000        0.00000000        0.00000000
  |        0.00000000        5.86554000        0.00000000
  |        0.00000000        0.00000000      100.00000000
  | Atomic structure:
  |       Atom                x [A]            y [A]            z [A]
  |    1: Species P             2.22126378        2.57045559      -21.29741218
  |    2: Species Pd            0.00000000        0.00000000      -13.89590000
  |    3: Species Pd            0.08116975        2.93277000      -23.90761803
  |    4: Species P            -2.14009403       -0.36231441      -16.50610586
  |    5: Species P            -2.14009403       -0.76246154      -14.34946218
  |    6: Species Pd            0.08116975        1.80799405      -20.84385000
  |    7: Species Pd            0.00000000       -1.12477595      -16.95966803
  |    8: Species P             2.22126378        2.17030846      -23.45405586
  |    9: Species Pd           -2.83441025        1.80799405      -16.95966803
  |   10: Species S            -0.61938582        0.66814366      -24.55155404
  |   11: Species S            -2.21502444       -2.26462634      -24.55155404
  |   12: Species Pd            2.91558000       -1.12477595      -20.84385000
  |   13: Species Pd            2.91558000        0.00000000      -23.90761803
  |   14: Species S             0.70055556        1.13985039      -17.60360404
  |   15: Species S            -0.61938582       -1.79291961      -20.19991399
  |   16: Species Pd           -2.83441025        2.93277000      -13.89590000
  |   17: Species P             0.77548597       -0.76246154      -23.45405586
  |   18: Species S             0.70055556       -2.26462634      -13.25196399
  |   19: Species S            -2.21502444        1.13985039      -20.19991399
  |   20: Species P            -0.69431622        2.17030846      -14.34946218
  |   21: Species P            -0.69431622        2.57045559      -16.50610586
  |   22: Species S             2.29619418       -1.79291961      -17.60360404
  |   23: Species S             2.29619418        0.66814366      -13.25196399
  |   24: Species P             0.77548597       -0.36231441      -21.29741218

  Lattice parameters for 3D lattice (in Angstroms) :     5.831160    5.865540  100.000000
  Angle(s) between unit vectors (in degrees)      :    90.000000   90.000000   90.000000

  |

  | The smallest distance between any two atoms is         2.19345155 AA.
  |
  | The first atom of this pair is atom number                     20 .
  | The second atom of this pair is atom number                    21 .
  | Wigner-Seitz cell of the first atom image           0     0     0 .
  | (The Wigner-Seitz cell of the second atom is 0 0 0  by definition.)

  Quantities derived from the lattice vectors:
  | Reciprocal lattice vector 1:  1.077519  0.000000  0.000000
  | Reciprocal lattice vector 2:  0.000000  1.071203  0.000000
  | Reciprocal lattice vector 3:  0.000000  0.000000  0.062832
  | Unit cell volume                               :   0.342029E+04  A^3

  Range separation radius for Ewald summation (hartree_convergence_parameter):      5.00000000 bohr.

  Fractional coordinates:
                         L1                L2                L3
       atom_frac         0.38093000        0.43823000       -0.21297412  P
       atom_frac         0.00000000        0.00000000       -0.13895900  Pd
       atom_frac         0.01392000        0.50000000       -0.23907618  Pd
       atom_frac        -0.36701000       -0.06177000       -0.16506106  P
       atom_frac        -0.36701000       -0.12999000       -0.14349462  P
       atom_frac         0.01392000        0.30824000       -0.20843850  Pd
       atom_frac         0.00000000       -0.19176000       -0.16959668  Pd
       atom_frac         0.38093000        0.37001000       -0.23454056  P
       atom_frac        -0.48608000        0.30824000       -0.16959668  Pd
       atom_frac        -0.10622000        0.11391000       -0.24551554  S
       atom_frac        -0.37986000       -0.38609000       -0.24551554  S
       atom_frac         0.50000000       -0.19176000       -0.20843850  Pd
       atom_frac         0.50000000        0.00000000       -0.23907618  Pd
       atom_frac         0.12014000        0.19433000       -0.17603604  S
       atom_frac        -0.10622000       -0.30567000       -0.20199914  S
       atom_frac        -0.48608000        0.50000000       -0.13895900  Pd
       atom_frac         0.13299000       -0.12999000       -0.23454056  P
       atom_frac         0.12014000       -0.38609000       -0.13251964  S
       atom_frac        -0.37986000        0.19433000       -0.20199914  S
       atom_frac        -0.11907000        0.37001000       -0.14349462  P
       atom_frac        -0.11907000        0.43823000       -0.16506106  P
       atom_frac         0.39378000       -0.30567000       -0.17603604  S
       atom_frac         0.39378000        0.11391000       -0.13251964  S
       atom_frac         0.13299000       -0.06177000       -0.21297412  P

  Number of empty states per atom not set in control.in - providing a guess from actual geometry.
  | Total number of empty states used during s.c.f. cycle:       92
  If you use a very high smearing, use empty_states (per atom!) in control.in to increase this value.

  Structure-dependent array size parameters: 
  | Maximum number of distinct radial functions  :       50
  | Maximum number of basis functions            :     1536
  | Number of Kohn-Sham states (occupied + empty):      400
------------------------------------------------------------

------------------------------------------------------------
          Preparing all fixed parts of the calculation.
------------------------------------------------------------
  Determining machine precision:
    2.225073858507201E-308
  Setting up grids for atomic and cluster calculations.

  Creating wave function, potential, and density for free atoms.

  Species: P

  List of occupied orbitals and eigenvalues:
    n    l              occ      energy [Ha]    energy [eV]
    1    0           2.0000       -76.790257     -2089.5692
    2    0           2.0000        -6.393895      -173.9867
    3    0           2.0000        -0.512112       -13.9353
    2    1           6.0000        -4.574086      -124.4672
    3    1           3.0000        -0.201148        -5.4735


  Species: Pd

  List of occupied orbitals and eigenvalues:
    n    l              occ      energy [Ha]    energy [eV]
    1    0           2.0000      -913.269104    -24851.3168
    2    0           2.0000      -130.434372     -3549.2998
    3    0           2.0000       -23.521804      -640.0609
    4    0           2.0000        -3.256918       -88.6253
    5    0           1.0000        -0.157260        -4.2793
    2    1           6.0000      -116.910756     -3181.3035
    3    1           6.0000       -19.103344      -519.8284
    4    1           6.0000        -1.998052       -54.3697
    3    2          10.0000       -12.098182      -329.2083
    4    2           9.0000        -0.243389        -6.6230


  Species: S

  List of occupied orbitals and eigenvalues:
    n    l              occ      energy [Ha]    energy [eV]
    1    0           2.0000       -88.680731     -2413.1255
    2    0           2.0000        -7.781719      -211.7513
    3    0           2.0000        -0.633662       -17.2428
    2    1           6.0000        -5.751976      -156.5192
    3    1           4.0000        -0.257086        -6.9957

  Creating fixed part of basis set: Ionic, confined, hydrogenic.
 
  P                    ion:

  List of free ionic orbitals and eigenvalues:
    n    l      energy [Ha]    energy [eV]
    1    0       -77.734373     -2115.2599
    2    0        -7.310959      -198.9413
    3    0        -1.271460       -34.5982
    2    1        -5.492730      -149.4648
    3    1        -0.913468       -24.8567


  List of ionic basis orbitals and eigenvalues:
    n    l      energy [Ha]    energy [eV]    outer radius [A]
    3    2        -0.457450       -12.4478       5.404780
    3    1        -0.913460       -24.8565       4.724723
    3    0        -1.271453       -34.5980       4.232463

 
  P                    hydrogenic:
 
  List of hydrogenic basis orbitals: 
    n    l      effective z      eigenvalue [eV]  inner max. [A]     outer max. [A]     outer radius [A]   
    4    3         6.200000       -32.6870           1.357793           1.357793           5.339109
    5    4         8.600000       -40.2502           1.534356           1.534356           5.404780
    4    2         6.200000       -32.6848           0.577014           1.820771           5.404780
    4    1         9.200000       -71.9740           0.161817           1.357793           4.554583
    5    3         9.800000       -52.2673           0.660067           1.776793           5.339109
    1    0         0.700000        -6.6607           0.755075           0.755075           5.404780
    5    4        13.200000       -94.8261           1.000236           1.000236           4.130234
 
 
  Pd                   ion:

  List of free ionic orbitals and eigenvalues:
    n    l      energy [Ha]    energy [eV]
    1    0      -914.099884    -24873.9234
    2    0      -131.248265     -3571.4470
    3    0       -24.332473      -662.1203
    4    0        -4.059276      -110.4585
    2    1      -117.724296     -3203.4411
    3    1       -19.913908      -541.8850
    4    1        -2.795328       -76.0648
    3    2       -12.908733      -351.2645
    4    2        -1.004248       -27.3270


  List of ionic basis orbitals and eigenvalues:
    n    l      energy [Ha]    energy [eV]    outer radius [A]
    5    1        -0.516938       -14.0666       5.427025

 
  Pd                   hydrogenic:
 
  List of hydrogenic basis orbitals: 
    n    l      effective z      eigenvalue [eV]  inner max. [A]     outer max. [A]     outer radius [A]   
    4    3         8.000000       -54.4226           1.054686           1.054686           4.629581
    5    4        10.000000       -54.4226           1.330451           1.330451           5.043202
    3    0         2.600000        -9.8948           0.150992           2.606197           5.493778
    3    2         2.500000        -9.3396           1.873517           1.873517           5.493778
    5    3        17.200000      -161.0043           0.373111           1.004353           3.625407
    6    5        14.000000       -74.0753           1.363381           1.363381           4.861593
    4    2         4.000000       -13.2388           0.888779           2.736807           5.493778
    5    3         7.600000       -31.4055           0.846363           2.278272           5.427025
    3    1         3.300000       -16.4334           0.482316           1.919889           5.427025
    4    0         9.400000       -75.1373           0.041321           1.380151           4.517760
 
 
  S                    ion:

  List of free ionic orbitals and eigenvalues:
    n    l      energy [Ha]    energy [eV]
    1    0       -89.703778     -2440.9640
    2    0        -8.775428      -238.7916
    3    0        -1.470343       -40.0101
    2    1        -6.747660      -183.6132
    3    1        -1.048627       -28.5346


  List of ionic basis orbitals and eigenvalues:
    n    l      energy [Ha]    energy [eV]    outer radius [A]
    3    2        -0.495605       -13.4861       5.386362
    3    0        -1.470336       -40.0099       3.967934

 
  S                    hydrogenic:
 
  List of hydrogenic basis orbitals: 
    n    l      effective z      eigenvalue [eV]  inner max. [A]     outer max. [A]     outer radius [A]   
    2    1         1.800000       -11.0118           1.168531           1.168531           5.452614
    4    3         7.000000       -41.6672           1.212182           1.212182           5.066981
    4    2         6.200000       -32.6848           0.582121           1.814567           5.386362
    5    4        10.800000       -63.4785           1.227092           1.227092           4.766538
    4    1         4.900000       -20.2928           0.304525           2.524192           5.452614
    5    3        10.000000       -54.4226           0.641929           1.727969           5.320915
    1    0         0.800000        -8.7059           0.657818           0.657818           5.386362
 

  Adding cutoff potential to free-atom effective potential.
  Creating atomic-like basis functions for current effective potential.

  Species P                   :

  List of atomic basis orbitals and eigenvalues:
    n    l      energy [Ha]    energy [eV]    outer radius [A]
    1    0       -76.790257     -2089.5692       0.727884
    2    0        -6.393895      -173.9867       2.532824
    3    0        -0.512112       -13.9353       5.274236
    2    1        -4.574086      -124.4672       2.862183
    3    1        -0.201148        -5.4735       5.404780


  Species Pd                  :

  List of atomic basis orbitals and eigenvalues:
    n    l      energy [Ha]    energy [eV]    outer radius [A]
    1    0      -913.269104    -24851.3168       0.223280
    2    0      -130.434372     -3549.2998       0.615909
    3    0       -23.521804      -640.0609       1.414312
    4    0        -3.256918       -88.6253       3.581357
    5    0        -0.157260        -4.2793       5.427025
    2    1      -116.910756     -3181.3035       0.631154
    3    1       -19.103344      -519.8284       1.540671
    4    1        -1.998052       -54.3697       4.408641
    3    2       -12.098182      -329.2083       1.806051
    4    2        -0.243389        -6.6230       5.361084


  Species S                   :

  List of atomic basis orbitals and eigenvalues:
    n    l      energy [Ha]    energy [eV]    outer radius [A]
    1    0       -88.680731     -2413.1255       0.682391
    2    0        -7.781719      -211.7513       2.289014
    3    0        -0.633662       -17.2428       5.256262
    2    1        -5.751976      -156.5192       2.555240
    3    1        -0.257086        -6.9957       5.386362

  Assembling full basis from fixed parts.
  | Species P :   atomic orbital   1 s accepted.
  | Species P :   atomic orbital   2 s accepted.
  | Species P :    ionic orbital   3 s accepted.
  | Species P :   atomic orbital   3 s accepted.
  | Species P :    hydro orbital   1 s accepted.
  | Species P :   atomic orbital   2 p accepted.
  | Species P :    hydro orbital   4 p accepted.
  | Species P :    ionic orbital   3 p accepted.
  | Species P :   atomic orbital   3 p accepted.
  | Species P :    ionic orbital   3 d accepted.
  | Species P :    hydro orbital   4 d accepted.
  | Species P :    hydro orbital   4 f accepted.
  | Species P :    hydro orbital   5 f accepted.
  | Species P :    hydro orbital   5 g accepted.
  | Species P :    hydro orbital   5 g accepted.
  | Species Pd :   atomic orbital   1 s accepted.
  | Species Pd :   atomic orbital   2 s accepted.
  | Species Pd :   atomic orbital   3 s accepted.
  | Species Pd :   atomic orbital   4 s accepted.
  | Species Pd :    hydro orbital   4 s accepted.
  | Species Pd :   atomic orbital   5 s accepted.
  | Species Pd :    hydro orbital   3 s accepted.
  | Species Pd :   atomic orbital   2 p accepted.
  | Species Pd :   atomic orbital   3 p accepted.
  | Species Pd :   atomic orbital   4 p accepted.
  | Species Pd :    ionic orbital   5 p accepted.
  | Species Pd :    hydro orbital   3 p accepted.
  | Species Pd :   atomic orbital   3 d accepted.
  | Species Pd :   atomic orbital   4 d accepted.
  | Species Pd :    hydro orbital   3 d accepted.
  | Species Pd :    hydro orbital   4 d accepted.
  | Species Pd :    hydro orbital   5 f accepted.
  | Species Pd :    hydro orbital   4 f accepted.
  | Species Pd :    hydro orbital   5 f accepted.
  | Species Pd :    hydro orbital   5 g accepted.
  | Species Pd :    hydro orbital   6 h accepted.
  | Species S :   atomic orbital   1 s accepted.
  | Species S :   atomic orbital   2 s accepted.
  | Species S :    ionic orbital   3 s accepted.
  | Species S :   atomic orbital   3 s accepted.
  | Species S :    hydro orbital   1 s accepted.
  | Species S :   atomic orbital   2 p accepted.
  | Species S :   atomic orbital   3 p accepted.
  | Species S :    hydro orbital   2 p accepted.
  | Species S :    hydro orbital   4 p accepted.
  | Species S :    ionic orbital   3 d accepted.
  | Species S :    hydro orbital   4 d accepted.
  | Species S :    hydro orbital   4 f accepted.
  | Species S :    hydro orbital   5 f accepted.
  | Species S :    hydro orbital   5 g accepted.
 
  Basis size parameters after reduction:
  | Total number of radial functions:       50
  | Total number of basis functions :     1536
 
  Per-task memory consumption for arrays in subroutine allocate_ext:
  |          18.522088MB.
  Testing on-site integration grid accuracy.
  |  Species  Function  <phi|h_atom|phi> (log., in eV)  <phi|h_atom|phi> (rad., in eV)
           1        1              -2089.5691986335              -2089.5691596863
           1        2               -173.9867283695               -173.9867277557
           1        3                -13.6361081844                -13.6361080848
           1        4                  6.3196202277                  6.3196248730
           1        5                 35.5063910317                 35.5046278689
           1        6               -124.4672117337               -124.4672115736
           1        7                 21.7850805219                 21.7850807420
           1        8                  5.4728117229                  5.4728126931
           1        9                 14.2823439458                 14.2814867513
           1       10                  5.1351171633                  5.1350933795
           1       11                 22.1926334062                 22.1926306446
           1       12                 19.3185135835                 19.3185098349
           1       13                 63.1205943020                 63.1205948499
           1       14                 69.5737792273                 69.5737793637
           1       15                 45.7043959527                 45.7043800010
           2       16             -24851.3167505682             -24851.3148165635
           2       17              -3549.2998457785              -3549.2998098031
           2       18               -640.0608571327               -640.0608534886
           2       19                -88.6252603132                -88.6252593318
           2       20                 18.5246690729                 18.5246144199
           2       21                 52.8792069863                 52.8786557216
           2       22                 14.4029261097                 14.4027956448
           2       23              -3181.3035399559              -3181.3035364574
           2       24               -519.8284281886               -519.8284264063
           2       25                -54.3697495806                -54.3697489262
           2       26                  0.8628369484                  0.8628370486
           2       27                 16.2613885962                 16.2613815110
           2       28               -329.2082917394               -329.2082912864
           2       29                 -6.6230267037                 -6.6230265077
           2       30                  5.4924295290                  5.4924115606
           2       31                 20.9810059921                 20.9809511249
           2       32                 71.7764955210                 71.7764953796
           2       33                 68.0082778309                 68.0082774629
           2       34                 18.3729273416                 18.3729286226
           2       35                 38.8271273822                 38.8271278029
           2       36                 60.1424809373                 60.1424811704
           3       37              -2413.1254568977              -2413.1254096663
           3       38               -211.7513411281               -211.7513404762
           3       39                -16.9725280787                -16.9725279206
           3       40                  7.6024436204                  7.6024549059
           3       41                 48.5754986812                 48.5751292874
           3       42               -156.5192206929               -156.5192205451
           3       43                 -6.9959757887                 -6.9959777655
           3       44                  6.8896462808                  6.8895564741
           3       45                 27.2255287135                 27.2252601701
           3       46                  6.0214250550                  6.0214220200
           3       47                 19.6206468977                 19.6206494558
           3       48                 24.7008710786                 24.7008710738
           3       49                 58.2239314521                 58.2239319465
           3       50                 47.5292252001                 47.5292260486

  Preparing densities etc. for the partition functions (integrals / Hartree potential).

  Preparations completed.
  max(cpu_time)          :      0.552 s.
  Wall clock time (cpu1) :      0.554 s.
------------------------------------------------------------

------------------------------------------------------------
          Begin self-consistency loop: Initialization.

          Date     :  20191127, Time     :  223908.988
------------------------------------------------------------

  Initializing index lists of integration centers etc. from given atomic structure:
  Mapping all atomic coordinates to central unit cell.

  Initializing the k-points
          Using symmetry for reducing the k-points
  | k-points reduced from:      324 to      164
  | Number of k-points                             :       164
  The eigenvectors in the calculations are COMPLEX.
  | K-points in task   0:         2
  | K-points in task   1:         3
  | K-points in task   2:         3
  | K-points in task   3:         3
  | K-points in task   4:         3
  | K-points in task   5:         2
  | K-points in task   6:         2
  | K-points in task   7:         2
  | K-points in task   8:         2
  | K-points in task   9:         2
  | K-points in task  10:         2
  | K-points in task  11:         2
  | K-points in task  12:         2
  | K-points in task  13:         2
  | K-points in task  14:         2
  | K-points in task  15:         2
  | K-points in task  16:         2
  | K-points in task  17:         2
  | K-points in task  18:         2
  | K-points in task  19:         2
  | K-points in task  20:         2
  | K-points in task  21:         2
  | K-points in task  22:         2
  | K-points in task  23:         2
  | K-points in task  24:         2
  | K-points in task  25:         2
  | K-points in task  26:         2
  | K-points in task  27:         2
  | K-points in task  28:         2
  | K-points in task  29:         2
  | K-points in task  30:         2
  | K-points in task  31:         2
  | K-points in task  32:         2
  | K-points in task  33:         2
  | K-points in task  34:         2
  | K-points in task  35:         2
  | K-points in task  36:         2
  | K-points in task  37:         2
  | K-points in task  38:         2
  | K-points in task  39:         2
  | K-points in task  40:         2
  | K-points in task  41:         2
  | K-points in task  42:         2
  | K-points in task  43:         2
  | K-points in task  44:         2
  | K-points in task  45:         2
  | K-points in task  46:         2
  | K-points in task  47:         2
  | K-points in task  48:         2
  | K-points in task  49:         2
  | K-points in task  50:         2
  | K-points in task  51:         2
  | K-points in task  52:         2
  | K-points in task  53:         2
  | K-points in task  54:         2
  | K-points in task  55:         2
  | K-points in task  56:         2
  | K-points in task  57:         2
  | K-points in task  58:         2
  | K-points in task  59:         2
  | K-points in task  60:         2
  | K-points in task  61:         2
  | K-points in task  62:         2
  | K-points in task  63:         2
  | K-points in task  64:         2
  | K-points in task  65:         2
  | K-points in task  66:         2
  | K-points in task  67:         2
  | K-points in task  68:         2
  | K-points in task  69:         2
  | K-points in task  70:         2
  | K-points in task  71:         2
  | K-points in task  72:         2
  | K-points in task  73:         2
  | K-points in task  74:         2
  | K-points in task  75:         2
  | K-points in task  76:         2
  | K-points in task  77:         2
  | K-points in task  78:         2
  | K-points in task  79:         2
  | Number of basis functions in the Hamiltonian integrals :     10108
  | Number of basis functions in a single unit cell        :      1536
  | Number of centers in hartree potential         :       927
  | Number of centers in hartree multipole         :       512
  | Number of centers in electron density summation:       420
  | Number of centers in basis integrals           :       460
  | Number of centers in integrals                 :       209
  | Number of centers in hamiltonian               :       420
  | Consuming         66 KiB for k_phase.
  | Number of super-cells (origin) [n_cells]                     :         243
  | Number of super-cells (after PM_index) [n_cells]             :          26
  | Number of super-cells in hamiltonian [n_cells_in_hamiltonian]:          26
  | Size of matrix packed + index [n_hamiltonian_matrix_size] :     7480709
  Initializing relaxation algorithms.
  Partitioning the integration grid into batches with parallel hashing+maxmin method.
  | Number of batches:     6603
  | Maximal batch size:     147
  | Minimal batch size:      49
  | Average batch size:      84.531
  | Standard deviation of batch sizes:      23.748

  Integration load balanced across    80 MPI tasks.
  Work distribution over tasks is as follows:
  Task     0 has       6989 integration points.
  Task     1 has       7029 integration points.
  Task     2 has       6958 integration points.
  Task     3 has       6955 integration points.
  Task     4 has       6923 integration points.
  Task     5 has       7032 integration points.
  Task     6 has       7035 integration points.
  Task     7 has       6985 integration points.
  Task     8 has       6949 integration points.
  Task     9 has       6984 integration points.
  Task    10 has       6945 integration points.
  Task    11 has       6968 integration points.
  Task    12 has       6963 integration points.
  Task    13 has       6966 integration points.
  Task    14 has       6920 integration points.
  Task    15 has       7042 integration points.
  Task    16 has       7034 integration points.
  Task    17 has       6987 integration points.
  Task    18 has       6922 integration points.
  Task    19 has       7036 integration points.
  Task    20 has       7033 integration points.
  Task    21 has       6986 integration points.
  Task    22 has       6974 integration points.
  Task    23 has       6960 integration points.
  Task    24 has       6940 integration points.
  Task    25 has       6984 integration points.
  Task    26 has       6963 integration points.
  Task    27 has       6991 integration points.
  Task    28 has       6977 integration points.
  Task    29 has       6952 integration points.
  Task    30 has       7039 integration points.
  Task    31 has       7028 integration points.
  Task    32 has       7037 integration points.
  Task    33 has       6960 integration points.
  Task    34 has       6955 integration points.
  Task    35 has       6955 integration points.
  Task    36 has       6980 integration points.
  Task    37 has       6957 integration points.
  Task    38 has       6957 integration points.
  Task    39 has       6992 integration points.
  Task    40 has       6965 integration points.
  Task    41 has       6926 integration points.
  Task    42 has       7006 integration points.
  Task    43 has       6924 integration points.
  Task    44 has       6953 integration points.
  Task    45 has       6983 integration points.
  Task    46 has       6980 integration points.
  Task    47 has       7035 integration points.
  Task    48 has       7041 integration points.
  Task    49 has       6987 integration points.
  Task    50 has       6969 integration points.
  Task    51 has       6988 integration points.
  Task    52 has       6953 integration points.
  Task    53 has       6983 integration points.
  Task    54 has       6972 integration points.
  Task    55 has       6991 integration points.
  Task    56 has       6962 integration points.
  Task    57 has       6986 integration points.
  Task    58 has       6969 integration points.
  Task    59 has       6955 integration points.
  Task    60 has       7015 integration points.
  Task    61 has       6970 integration points.
  Task    62 has       6959 integration points.
  Task    63 has       6961 integration points.
  Task    64 has       6921 integration points.
  Task    65 has       7007 integration points.
  Task    66 has       6988 integration points.
  Task    67 has       7043 integration points.
  Task    68 has       6963 integration points.
  Task    69 has       7015 integration points.
  Task    70 has       6989 integration points.
  Task    71 has       6950 integration points.
  Task    72 has       6922 integration points.
  Task    73 has       6928 integration points.
  Task    74 has       6945 integration points.
  Task    75 has       6924 integration points.
  Task    76 has       6986 integration points.
  Task    77 has       6960 integration points.
  Task    78 has       6986 integration points.
  Task    79 has       6958 integration points.
  Initializing partition tables, free-atom densities, potentials, etc. across the integration grid (initialize_grid_storage).
  | initialize_grid_storage: Actual outermost partition radius vs. multipole_radius_free
  | (-- VB: in principle, multipole_radius_free should be larger, hence this output)
  | Species        1: Confinement radius =              6.000000000000000 AA, multipole_radius_free =              6.033387558927091 AA.
  | Species        1: outer_partition_radius set to              6.033387558927091 AA .
  | Species        2: Confinement radius =              6.000000000000000 AA, multipole_radius_free =              6.058219618167466 AA.
  | Species        2: outer_partition_radius set to              6.058219618167466 AA .
  | Species        3: Confinement radius =              6.000000000000000 AA, multipole_radius_free =              6.012827091137924 AA.
  | Species        3: outer_partition_radius set to              6.012827091137924 AA .
  | Original list of interatomic distances with         460 x        460 entries is created.
  | Net number of integration points:   558160
  | of which are non-zero points    :   446744
  | Numerical average free-atom electrostatic potential    :     -2.16547279 eV
  Renormalizing the initial density to the exact electron count on the 3D integration grid.
  | Initial density: Formal number of electrons (from input files) :     616.0000000000
  | Integrated number of electrons on 3D grid     :     616.0000062195
  | Charge integration error                      :       0.0000062195
  | Normalization factor for density and gradient :       0.9999999899
  Obtaining max. number of non-zero basis functions in each batch (get_n_compute_maxes).
  | Maximal number of non-zero basis functions:     2170 in task     0
  | Maximal number of non-zero basis functions:     2208 in task     1
  | Maximal number of non-zero basis functions:     2160 in task     2
  | Maximal number of non-zero basis functions:     2226 in task     3
  | Maximal number of non-zero basis functions:     2204 in task     4
  | Maximal number of non-zero basis functions:     2172 in task     5
  | Maximal number of non-zero basis functions:     2174 in task     6
  | Maximal number of non-zero basis functions:     2191 in task     7
  | Maximal number of non-zero basis functions:     2210 in task     8
  | Maximal number of non-zero basis functions:     2271 in task     9
  | Maximal number of non-zero basis functions:     2242 in task    10
  | Maximal number of non-zero basis functions:     2201 in task    11
  | Maximal number of non-zero basis functions:     2204 in task    12
  | Maximal number of non-zero basis functions:     2264 in task    13
  | Maximal number of non-zero basis functions:     2221 in task    14
  | Maximal number of non-zero basis functions:     2201 in task    15
  | Maximal number of non-zero basis functions:     2183 in task    16
  | Maximal number of non-zero basis functions:     2233 in task    17
  | Maximal number of non-zero basis functions:     2231 in task    18
  | Maximal number of non-zero basis functions:     2174 in task    19
  | Maximal number of non-zero basis functions:     2217 in task    20
  | Maximal number of non-zero basis functions:     2219 in task    21
  | Maximal number of non-zero basis functions:     2175 in task    22
  | Maximal number of non-zero basis functions:     2207 in task    23
  | Maximal number of non-zero basis functions:     2167 in task    24
  | Maximal number of non-zero basis functions:     2234 in task    25
  | Maximal number of non-zero basis functions:     2140 in task    26
  | Maximal number of non-zero basis functions:     2192 in task    27
  | Maximal number of non-zero basis functions:     2186 in task    28
  | Maximal number of non-zero basis functions:     2222 in task    29
  | Maximal number of non-zero basis functions:     2182 in task    30
  | Maximal number of non-zero basis functions:     2207 in task    31
  | Maximal number of non-zero basis functions:     2193 in task    32
  | Maximal number of non-zero basis functions:     2236 in task    33
  | Maximal number of non-zero basis functions:     2208 in task    34
  | Maximal number of non-zero basis functions:     2213 in task    35
  | Maximal number of non-zero basis functions:     2217 in task    36
  | Maximal number of non-zero basis functions:     2220 in task    37
  | Maximal number of non-zero basis functions:     2264 in task    38
  | Maximal number of non-zero basis functions:     2193 in task    39
  | Maximal number of non-zero basis functions:     2190 in task    40
  | Maximal number of non-zero basis functions:     2171 in task    41
  | Maximal number of non-zero basis functions:     2216 in task    42
  | Maximal number of non-zero basis functions:     2194 in task    43
  | Maximal number of non-zero basis functions:     2177 in task    44
  | Maximal number of non-zero basis functions:     2224 in task    45
  | Maximal number of non-zero basis functions:     2225 in task    46
  | Maximal number of non-zero basis functions:     2200 in task    47
  | Maximal number of non-zero basis functions:     2237 in task    48
  | Maximal number of non-zero basis functions:     2216 in task    49
  | Maximal number of non-zero basis functions:     2168 in task    50
  | Maximal number of non-zero basis functions:     2171 in task    51
  | Maximal number of non-zero basis functions:     2197 in task    52
  | Maximal number of non-zero basis functions:     2208 in task    53
  | Maximal number of non-zero basis functions:     2244 in task    54
  | Maximal number of non-zero basis functions:     2172 in task    55
  | Maximal number of non-zero basis functions:     2191 in task    56
  | Maximal number of non-zero basis functions:     2217 in task    57
  | Maximal number of non-zero basis functions:     2168 in task    58
  | Maximal number of non-zero basis functions:     2196 in task    59
  | Maximal number of non-zero basis functions:     2205 in task    60
  | Maximal number of non-zero basis functions:     2139 in task    61
  | Maximal number of non-zero basis functions:     2230 in task    62
  | Maximal number of non-zero basis functions:     2205 in task    63
  | Maximal number of non-zero basis functions:     2219 in task    64
  | Maximal number of non-zero basis functions:     2261 in task    65
  | Maximal number of non-zero basis functions:     2172 in task    66
  | Maximal number of non-zero basis functions:     2188 in task    67
  | Maximal number of non-zero basis functions:     2250 in task    68
  | Maximal number of non-zero basis functions:     2179 in task    69
  | Maximal number of non-zero basis functions:     2235 in task    70
  | Maximal number of non-zero basis functions:     2317 in task    71
  | Maximal number of non-zero basis functions:     2223 in task    72
  | Maximal number of non-zero basis functions:     2199 in task    73
  | Maximal number of non-zero basis functions:     2182 in task    74
  | Maximal number of non-zero basis functions:     2213 in task    75
  | Maximal number of non-zero basis functions:     2200 in task    76
  | Maximal number of non-zero basis functions:     2235 in task    77
  | Maximal number of non-zero basis functions:     2141 in task    78
  | Maximal number of non-zero basis functions:     2205 in task    79
  Allocating       19.661 MB for KS_eigenvector_complex
  Integrating Hamiltonian matrix: batch-based integration.
  Time summed over all CPUs for integration: real work      304.642 s, elapsed      316.981 s
  Integrating overlap matrix.
  Time summed over all CPUs for integration: real work      234.869 s, elapsed      245.452 s
  Decreasing sparse matrix size:
   Tolerance:  9.999999824516700E-014
   Hamiltonian matrix
  | Array has  6662872 nonzero elements out of  7480709 elements
  | Sparsity factor is 0.109
   Overlap matrix
  | Array has  6228396 nonzero elements out of  7480709 elements
  | Sparsity factor is 0.167
  New size of hamiltonian matrix:     6663117

  Updating Kohn-Sham eigenvalues and eigenvectors using ELSI and the ELPA eigensolver.
  Overlap matrix is nonsingular
  | Lowest eigenvalue of overlap  :  0.26E-04
  | Highest eigenvalue of overlap :  0.11E+02
  Finished singularity check of overlap matrix
  | Time :     2.855 s
  Finished Cholesky decomposition
  | Time :     0.312 s
  Finished transformation to standard eigenproblem
  | Time :     0.523 s
  Starting LAPACK eigensolver
  Finished solving standard eigenproblem
  | Time :     3.014 s
  Finished back-transformation of eigenvectors
  | Time :     0.107 s

  Obtaining occupation numbers and chemical potential using ELSI.
  | Chemical potential (Fermi level):    -5.88962060eV
  Writing Kohn-Sham eigenvalues.
  K-point:       1 at    0.000000    0.000000    0.000000 (in units of recip. lattice)

  State    Occupation    Eigenvalue [Ha]    Eigenvalue [eV]
      1       2.00000        -913.282395       -24851.67841
      2       2.00000        -913.282395       -24851.67841
      3       2.00000        -913.282395       -24851.67840
      4       2.00000        -913.282395       -24851.67840
      5       2.00000        -913.282336       -24851.67680
      6       2.00000        -913.282336       -24851.67680
      7       2.00000        -913.282336       -24851.67680
      8       2.00000        -913.282336       -24851.67680
      9       2.00000        -130.447999        -3549.67066
     10       2.00000        -130.447999        -3549.67066
     11       2.00000        -130.447999        -3549.67066
     12       2.00000        -130.447999        -3549.67066
     13       2.00000        -130.447939        -3549.66904
     14       2.00000        -130.447939        -3549.66904
     15       2.00000        -130.447939        -3549.66904
     16       2.00000        -130.447939        -3549.66904
     17       2.00000        -116.924408        -3181.67502
     18       2.00000        -116.924408        -3181.67502
     19       2.00000        -116.924408        -3181.67501
     20       2.00000        -116.924408        -3181.67501
     21       2.00000        -116.924403        -3181.67490
     22       2.00000        -116.924403        -3181.67490
     23       2.00000        -116.924403        -3181.67489
     24       2.00000        -116.924403        -3181.67488
     25       2.00000        -116.924349        -3181.67341
     26       2.00000        -116.924349        -3181.67341
     27       2.00000        -116.924348        -3181.67339
     28       2.00000        -116.924348        -3181.67339
     29       2.00000        -116.924344        -3181.67328
     30       2.00000        -116.924344        -3181.67328
     31       2.00000        -116.924343        -3181.67327
     32       2.00000        -116.924343        -3181.67327
     33       2.00000        -116.924329        -3181.67286
     34       2.00000        -116.924329        -3181.67286
     35       2.00000        -116.924329        -3181.67286
     36       2.00000        -116.924329        -3181.67286
     37       2.00000        -116.924268        -3181.67123
     38       2.00000        -116.924268        -3181.67123
     39       2.00000        -116.924268        -3181.67123
     40       2.00000        -116.924268        -3181.67123
     41       2.00000         -88.695959        -2413.53984
     42       2.00000         -88.695959        -2413.53984
     43       2.00000         -88.695959        -2413.53984
     44       2.00000         -88.695959        -2413.53984
     45       2.00000         -88.695697        -2413.53273
     46       2.00000         -88.695697        -2413.53273
     47       2.00000         -88.695697        -2413.53273
     48       2.00000         -88.695697        -2413.53273
     49       2.00000         -76.815480        -2090.25556
     50       2.00000         -76.815480        -2090.25556
     51       2.00000         -76.815480        -2090.25556
     52       2.00000         -76.815480        -2090.25556
     53       2.00000         -76.815476        -2090.25545
     54       2.00000         -76.815476        -2090.25545
     55       2.00000         -76.815476        -2090.25545
     56       2.00000         -76.815476        -2090.25545
     57       2.00000         -23.536331         -640.45614
     58       2.00000         -23.536331         -640.45614
     59       2.00000         -23.536331         -640.45614
     60       2.00000         -23.536331         -640.45614
     61       2.00000         -23.536265         -640.45435
     62       2.00000         -23.536265         -640.45435
     63       2.00000         -23.536265         -640.45435
     64       2.00000         -23.536265         -640.45435
     65       2.00000         -19.118163         -520.23167
     66       2.00000         -19.118163         -520.23167
     67       2.00000         -19.118163         -520.23167
     68       2.00000         -19.118163         -520.23167
     69       2.00000         -19.118117         -520.23044
     70       2.00000         -19.118117         -520.23044
     71       2.00000         -19.118117         -520.23044
     72       2.00000         -19.118117         -520.23044
     73       2.00000         -19.118100         -520.22997
     74       2.00000         -19.118100         -520.22997
     75       2.00000         -19.118100         -520.22997
     76       2.00000         -19.118100         -520.22997
     77       2.00000         -19.118055         -520.22873
     78       2.00000         -19.118055         -520.22873
     79       2.00000         -19.118055         -520.22873
     80       2.00000         -19.118055         -520.22873
     81       2.00000         -19.117392         -520.21071
     82       2.00000         -19.117392         -520.21071
     83       2.00000         -19.117392         -520.21071
     84       2.00000         -19.117392         -520.21071
     85       2.00000         -19.117320         -520.20875
     86       2.00000         -19.117320         -520.20875
     87       2.00000         -19.117320         -520.20875
     88       2.00000         -19.117320         -520.20875
     89       2.00000         -12.113000         -329.61151
     90       2.00000         -12.113000         -329.61151
     91       2.00000         -12.113000         -329.61151
     92       2.00000         -12.113000         -329.61151
     93       2.00000         -12.112954         -329.61024
     94       2.00000         -12.112954         -329.61024
     95       2.00000         -12.112954         -329.61024
     96       2.00000         -12.112954         -329.61024
     97       2.00000         -12.112939         -329.60984
     98       2.00000         -12.112939         -329.60984
     99       2.00000         -12.112939         -329.60984
    100       2.00000         -12.112939         -329.60984
    101       2.00000         -12.112892         -329.60857
    102       2.00000         -12.112892         -329.60857
    103       2.00000         -12.112892         -329.60857
    104       2.00000         -12.112892         -329.60857
    105       2.00000         -12.112490         -329.59761
    106       2.00000         -12.112490         -329.59761
    107       2.00000         -12.112490         -329.59761
    108       2.00000         -12.112490         -329.59761
    109       2.00000         -12.112460         -329.59682
    110       2.00000         -12.112460         -329.59682
    111       2.00000         -12.112460         -329.59682
    112       2.00000         -12.112460         -329.59682
    113       2.00000         -12.112422         -329.59578
    114       2.00000         -12.112422         -329.59578
    115       2.00000         -12.112422         -329.59578
    116       2.00000         -12.112422         -329.59578
    117       2.00000         -12.112393         -329.59498
    118       2.00000         -12.112393         -329.59498
    119       2.00000         -12.112393         -329.59498
    120       2.00000         -12.112393         -329.59498
    121       2.00000         -12.112331         -329.59331
    122       2.00000         -12.112331         -329.59331
    123       2.00000         -12.112331         -329.59331
    124       2.00000         -12.112331         -329.59331
    125       2.00000         -12.112262         -329.59141
[...]
    Strain deriv. of the orbitals :     0.9115004823E+03    0.9539698035E+03    0.3501801481E+03   -0.7863824964E-01    0.7306341322E-01   -0.4244691170E-02
    vdW correction   :     0.4504228395E+01    0.4571675887E+01    0.3523451669E+01   -0.3522868541E-04    0.1337709322E-03   -0.7093433823E-05
  -----------------------------------------------------------------------------------------------------------------------------------------------------------
  Sum of all contributions        :     0.2764127620E-01   -0.4269926517E-01    0.3022563142E+00    0.1350438622E-02   -0.2710546954E-01    0.3374107658E-02

  +-------------------------------------------------------------------+
  |              Analytical stress tensor - Symmetrized               |
  |                  Cartesian components [eV/A**3]                   |
  +-------------------------------------------------------------------+
  |                x                y                z                |
  |                                                                   |
  |  x         0.00000852       0.00000042      -0.00000835           |
  |  y         0.00000042      -0.00001316       0.00000104           |
  |  z        -0.00000835       0.00000104       0.00009313           |
  |                                                                   |
  |  Pressure:      -0.00002950   [eV/A**3]                           |
  |                                                                   |
  +-------------------------------------------------------------------+

 * Warning: Stress tensor is anisotropic. Be aware that pressure is an isotropic quantity.

  Timings for VdW correction (Tkatchenko-Scheffler 2009 or later):
  | CPU time:       14.556 s, Wall clock time:       14.542 s.
  Removing unitary transformations (pure translations, rotations) from forces on atoms.
  Atomic forces before filtering:
  | Net force on center of mass :  -0.737372E-04 -0.516700E-03 -0.418271E-04 eV/A
  Removing unitary transformations (rotations) from forces on lattice.
  Lattice forces before filtering:
  | Net torque relative to origin:   0.444036E-19 -0.969751E-20 -0.365852E-19 eV
  Atomic forces after filtering:
  | Net force on center of mass :  -0.418139E-17 -0.111504E-16  0.522674E-17 eV/A
  Lattice forces after filtering:
  | Net torque relative to origin:   0.444036E-19 -0.969751E-20 -0.365852E-19 eV

  Energy and forces in a compact form:
  | Total energy uncorrected      :         -0.127267660543982E+07 eV
  | Total energy corrected        :         -0.127267660543982E+07 eV  <-- do not rely on this value for anything but (periodic) metals
  | Electronic free energy        :         -0.127267660543982E+07 eV
  Total atomic forces (unitary forces cleaned) [eV/Ang]:
  |   1         -0.604570307674782E-02          0.590221698805432E-02          0.990745704710856E-03
  |   2          0.883568815170055E-02          0.333610300301430E-02          0.208498026208403E-02
  |   3         -0.463992464387615E-02          0.268249535815241E-02          0.489916625057687E-02
  |   4         -0.360047066414526E-02          0.593628532642862E-03          0.260431555527201E-02
  |   5          0.198092317537868E-02          0.791836313822613E-03          0.352017161563692E-03
  |   6         -0.288479382263678E-02          0.451902620186212E-04          0.351705472121368E-03
  |   7          0.650693045619160E-02          0.349529295803799E-02          0.673151029546830E-03
  |   8          0.578633880962171E-02         -0.198223503783481E-02          0.572209130493634E-03
  |   9          0.717279131973475E-02          0.305501545271481E-03         -0.194108073685297E-02
  |  10         -0.770178738740603E-03         -0.525862543992532E-03         -0.224648568989907E-02
  |  11          0.279699150898706E-02          0.122447735355118E-04          0.133420570019677E-03
  |  12          0.889206826796631E-02         -0.144560711879722E-02          0.452204405175090E-02
  |  13         -0.223624941689228E-02         -0.146378414175297E-02         -0.510080415330311E-02
  |  14         -0.837666660127557E-03          0.241192352445761E-02         -0.963224422443968E-03
  |  15         -0.406695040175790E-02         -0.235459286782116E-02          0.699459928997309E-03
  |  16         -0.511693046923800E-03          0.332350672525828E-02          0.600055732580145E-03
  |  17         -0.137877154492103E-02          0.147082252637833E-02          0.812139603935962E-03
  |  18          0.145959096388752E-02         -0.511913192162809E-02          0.602316393651991E-04
  |  19          0.222273650628252E-02          0.173074292958314E-02         -0.251932490122286E-02
  |  20         -0.397304058736822E-02         -0.131477625073096E-03         -0.111307540461730E-02
  |  21         -0.326681973817586E-02          0.212922305316904E-02         -0.110180850344401E-02
  |  22         -0.567158147608331E-02         -0.886345334578852E-02         -0.257110371454035E-02
  |  23         -0.467981811563746E-02         -0.248445621025656E-02         -0.119338202746625E-02
  |  24         -0.109039722571666E-02         -0.386012768045155E-02         -0.605352539228609E-03

  ------------------------------------ 
  Start decomposition of the XC Energy 
  ------------------------------------ 
  X and C from original XC functional choice 
  Hartree-Fock Energy :          0.000000000 Ha              0.000000000 eV
  X Energy            :      -1518.876980555 Ha         -41330.745526068 eV
  C Energy            :        -29.548864258 Ha           -804.065506855 eV
  Total XC Energy     :      -1548.425844812 Ha         -42134.811032923 eV
  ------------------------------------ 
  LDA X and C from self-consistent density 
  X Energy LDA        :      -1437.457949859 Ha         -39115.220976181 eV
  C Energy LDA        :        -54.173852605 Ha          -1474.145533091 eV
  ------------------------------------ 
  End decomposition of the XC Energy 
  ------------------------------------ 

------------------------------------------------------------
  Relaxation / MD: End force evaluation.       :  max(cpu_time)    wall_clock(cpu1)
  | Time for this force evaluation             :      589.388 s         590.272 s

------------------------------------------------------------
  Geometry optimization: Attempting to predict improved coordinates.

  +-------------------------------------------------------------------+
  | Generalized derivatives on lattice vectors [eV/A]                 |
  +-------------------------------------------------------------------+
  |lattice_vector       0.00486402       0.00023764      -0.00476973  |
  |lattice_vector       0.00023646      -0.00747660       0.00059080  |
  |lattice_vector      -0.00027106       0.00003374       0.00302267  |
  +-------------------------------------------------------------------+
  | Forces on lattice vectors cleaned from atomic contributions [eV/A]|
  +-------------------------------------------------------------------+
  |lattice_vector       0.00605587       0.00472882       0.00451857  |
  |lattice_vector       0.00608711      -0.00370362      -0.00074809  |
  |lattice_vector       0.00001405      -0.00000005      -0.00300799  |
  +-------------------------------------------------------------------+
  | Projected forces for shape relaxation  [eV/A]                     |
  +-------------------------------------------------------------------+
  |lattice_vector       0.00605587      -0.00000000      -0.00000000  |
  |lattice_vector       0.00000000      -0.00370362       0.00000000  |
  |lattice_vector      -0.00000000       0.00000000      -0.00300799  |
  +-------------------------------------------------------------------+
  Removing unitary transformations (pure translations, rotations) from forces on atoms.
  Atomic forces before filtering:
  | Net force on center of mass :  -0.418139E-17 -0.111504E-16  0.522674E-17 eV/A
  Removing unitary transformations (rotations) from forces on lattice.
  Lattice forces before filtering:
  | Net torque relative to origin:   0.000000E+00 -0.409431E-34  0.204716E-34 eV
  Atomic forces after filtering:
  | Net force on center of mass :  -0.435562E-17 -0.111504E-16  0.496540E-17 eV/A
  Lattice forces after filtering:
  | Net torque relative to origin:   0.000000E+00 -0.409431E-34  0.204716E-34 eV
  || Forces on lattice vectors || =   0.605587E-02 eV/A.
  Net remaining forces (excluding translations, rotations) in present geometry:
  Maximum force component is  0.889207E-02 eV/A.
  Present geometry is converged.

------------------------------------------------------------
  Final atomic structure:
                         x [A]             y [A]             z [A]
  lattice_vector         5.68280734       -0.00000000       -0.00000000
  lattice_vector        -0.00000000        5.71105057       -0.00000000
  lattice_vector         0.00000000       -0.00000000       99.99652334

            atom         2.20807461        2.49488453      -21.22022708  P
            atom         0.03277975       -0.02623673      -13.99760647  Pd
            atom         0.04544398        2.82811772      -23.80705241  Pd
            atom        -2.12912182       -0.35877160      -16.58340108  P
            atom        -2.13278365       -0.71847457      -14.38697397  P
            atom         0.05440296        1.79811834      -20.78992778  Pd
            atom         0.02366377       -1.05693680      -17.01390143  Pd
            atom         2.21063408        2.13598425      -23.41677451  P
            atom        -2.80041572        1.79927525      -17.01288626  Pd
            atom        -0.59856872        0.62851840      -24.39432380  S
            atom        -2.14993428       -2.22689959      -24.39403147  S
            atom         2.87760634       -1.05750431      -20.79053832  Pd
            atom         2.88970006       -0.02718397      -23.80486379  Pd
            atom         0.67751212        1.14762502      -17.56252183  S
            atom        -0.59917451       -1.70806454      -20.24111954  S
            atom        -2.81081153        2.82922716      -13.99780233  Pd
            atom         0.72363844       -0.71953909      -23.41690783  P
            atom         0.67715504       -2.22532668      -13.40911827  S
            atom        -2.15157634        1.14681398      -20.23958408  S
            atom        -0.64461269        2.13728230      -14.38649565  P
            atom        -0.64649118        2.49606870      -16.58311447  P
            atom         2.23006068       -1.70665144      -17.56325665  S
            atom         2.22829493        0.62978483      -13.40931213  S
            atom         0.72474373       -0.35964705      -21.22047525  P

  Fractional coordinates:
                         L1                L2                L3
       atom_frac         0.38855349        0.43685212       -0.21220965  P
       atom_frac         0.00576823       -0.00459403       -0.13998093  Pd
       atom_frac         0.00799675        0.49520096       -0.23807880  Pd
       atom_frac        -0.37466021       -0.06282060       -0.16583978  P
       atom_frac        -0.37530459       -0.12580427       -0.14387474  P
       atom_frac         0.00957326        0.31484896       -0.20790651  Pd
       atom_frac         0.00416410       -0.18506872       -0.17014493  Pd
       atom_frac         0.38900388        0.37400899       -0.23417589  P
       atom_frac        -0.49278738        0.31505154       -0.17013478  Pd
       atom_frac        -0.10532976        0.11005303       -0.24395172  S
       atom_frac        -0.37832257       -0.38992819       -0.24394880  S
       atom_frac         0.50637056       -0.18516809       -0.20791261  Pd
       atom_frac         0.50849869       -0.00475989       -0.23805691  Pd
       atom_frac         0.11922138        0.20094815       -0.17563132  S
       atom_frac        -0.10543636       -0.29908062       -0.20241823  S
       atom_frac        -0.49461672        0.49539522       -0.13998289  Pd
       atom_frac         0.12733820       -0.12599067       -0.23417722  P
       atom_frac         0.11915854       -0.38965277       -0.13409584  S
       atom_frac        -0.37861152        0.20080613       -0.20240288  S
       atom_frac        -0.11343209        0.37423628       -0.14386996  P
       atom_frac        -0.11376264        0.43705946       -0.16583691  P
       atom_frac         0.39242236       -0.29883319       -0.17563867  S
       atom_frac         0.39211164        0.11027478       -0.13409778  S
       atom_frac         0.12753269       -0.06297389       -0.21221213  P
------------------------------------------------------------

------------------------------------------------------------------------------
  Final output of selected total energy values:

  The following output summarizes some interesting total energy values
  at the end of a run (AFTER all relaxation, molecular dynamics, etc.).

  | Total energy of the DFT / Hartree-Fock s.c.f. calculation      :       -1272676.605439821 eV
  | Final zero-broadening corrected energy (caution - metals only) :       -1272676.605439821 eV
  | For reference only, the value of 1 Hartree used in FHI-aims is :             27.211384500 eV

  Before relying on these values, please be sure to understand exactly which
  total energy value is referred to by a given number. Different objects may
  all carry the same name 'total energy'. Definitions:

  Total energy of the DFT / Hartree-Fock s.c.f. calculation:
  | Note that this energy does not include ANY quantities calculated after the
  | s.c.f. cycle, in particular not ANY RPA, MP2, etc. many-body perturbation terms.

  Final zero-broadening corrected energy:
  | For metallic systems only, a broadening of the occupation numbers at the Fermi
  | level can be extrapolated back to zero broadening by an electron-gas inspired
  | formula. For all systems that are not real metals, this value can be
  | meaningless and should be avoided.

------------------------------------------------------------------------------
  Methods described in the following list of references were used in this FHI-aims run.
  If you publish the results, please make sure to cite these reference if they apply.
  FHI-aims is an academic code, and for our developers (often, Ph.D. students
  and postdocs), scientific credit in the community is essential.
  Thank you for helping us!

  For any use of FHI-aims, please cite:

    Volker Blum, Ralf Gehrke, Felix Hanke, Paula Havu, Ville Havu,
    Xinguo Ren, Karsten Reuter, and Matthias Scheffler
    'Ab initio molecular simulations with numeric atom-centered orbitals'
    Computer Physics Communications 180, 2175-2196 (2009)
    http://dx.doi.org/10.1016/j.cpc.2009.06.022


  For the analytical stress tensor used in your run, please cite:

    Franz Knuth, Christian Carbogno, Viktor Atalla, Volker Blum, Matthias Scheffler
    'All-electron formalism for total energy strain derivatives and
    stress tensor components for numeric atom-centered orbitals'
    Computer Physics Communications 190, 33-50 (2015).
    http://dx.doi.org/10.1016/j.cpc.2015.01.003


  The scalable eigensolver library ELPA was used in your run.
  ELPA is essential especially for large systems on hundreds or thousands of CPUs.
  For ELPA, please cite:

    Andreas Marek, Volker Blum, Rainer Johanni, Ville Havu, Bruno Lang,
    Thomas Auckenthaler, Alexander Heinecke, Hans-Joachim Bungartz, and Hermann Lederer,
    'The ELPA Library - Scalable Parallel Eigenvalue Solutions
    for Electronic Structure Theory and Computational Science'
    The Journal of Physics: Condensed Matter 26, 213201 (2014).
    http://dx.doi.org/10.1088/0953-8984/26/21/213201


  The ELSI infrastructure was used in your run to solve the Kohn-Sham electronic structure.
  Please check out http://elsi-interchange.org to learn more.
  If scalability is important for your project, please acknowledge ELSI by citing:

    V. W-z. Yu, F. Corsetti, A. Garcia, W. P. Huhn, M. Jacquelin, W. Jia,
    B. Lange, L. Lin, J. Lu, W. Mi, A. Seifitokaldani, A. Vazquez-Mayagoitia,
    C. Yang, H. Yang, and V. Blum
    'ELSI: A unified software interface for Kohn-Sham electronic structure solvers'
    Computer Physics Communications 222, 267-285 (2018).
    http://dx.doi.org/10.1016/j.cpc.2017.09.007


  For the real-space grid partitioning and parallelization used in this calculation, please cite:

    Ville Havu, Volker Blum, Paula Havu, and Matthias Scheffler,
    'Efficient O(N) integration for all-electron electronic structure calculation'
    'using numerically tabulated basis functions'
    Journal of Computational Physics 228, 8367-8379 (2009).
    http://dx.doi.org/10.1016/j.jcp.2009.08.008

  Of course, there are many other important community references, e.g., those cited in the
  above references. Our list is limited to references that describe implementations in the
  FHI-aims code. The reason is purely practical (length of this list) - please credit others as well.

------------------------------------------------------------
          Leaving FHI-aims.
          Date     :  20191128, Time     :  015249.946

          Computational steps:
          | Number of self-consistency cycles          :          268
          | Number of SCF (re)initializations          :           17
          | Number of relaxation steps                 :           16

          Detailed time accounting                     :  max(cpu_time)    wall_clock(cpu1)
          | Total time                                 :    11629.992 s       11621.589 s
          | Preparation time                           :        0.552 s           0.554 s
          | Boundary condition initalization           :       19.656 s          19.594 s
          | Grid partitioning                          :        6.720 s           6.691 s
          | Preloading free-atom quantities on grid    :        7.404 s           7.387 s
          | Free-atom superposition energy             :        0.860 s           0.833 s
          | Total time for integrations                :     1293.672 s        1292.244 s
          | Total time for solution of K.-S. equations :     3140.948 s        3138.562 s
          | Total time for EV reorthonormalization     :       21.400 s          15.203 s
          | Total time for density & force components  :     6509.136 s        6503.373 s
          | Total time for mixing & preconditioning    :       66.164 s          66.076 s
          | Total time for Hartree multipole update    :        2.152 s           1.568 s
          | Total time for Hartree multipole sum       :      314.368 s         313.640 s
          | Total time for total energy evaluation     :        1.084 s           0.575 s
          | Total time for scaled ZORA corrections     :        0.000 s           0.000 s
          | Total time for vdW correction              :      246.096 s         245.894 s

          Partial memory accounting:
          | Residual value for overall tracked memory usage across tasks :           0.000 MB (should be 0.000 MB)
          | Peak values for overall tracked memory usage (after allocating eigenvalue_tmp):
          |   Minimum:      332.295 MB (on task  1)
          |   Maximum:      351.956 MB (on task  2)
          |   Average:      333.278 MB
          | Largest tracked array allocation (hamiltonian):
          |   Minimum:       63.989 MB (on task  1)
          |   Maximum:       63.989 MB (on task  1)
          |   Average:       63.989 MB
          Note:  These values currently only include a subset of arrays which are explicitly tracked.
          The "true" memory usage will be greater.

          Have a nice day.
------------------------------------------------------------
