  MPI-parallelism will be employed.
------------------------------------------------------------
          Invoking FHI-aims ...
          Version 171221_1
          Compiled on 2018/11/06 at 11:18:49 on host headnode.

          When using FHI-aims, please cite the following reference:

          Volker Blum, Ralf Gehrke, Felix Hanke, Paula Havu,
          Ville Havu, Xinguo Ren, Karsten Reuter, and Matthias Scheffler,
          'Ab Initio Molecular Simulations with Numeric Atom-Centered Orbitals',
          Computer Physics Communications 180, 2175-2196 (2009)

          For any questions about FHI-aims, please visit the aimsclub website
          with its forums and wiki. Contributions to both the forums and the
          wiki are warmly encouraged - they are for you, and everyone is welcome there.

------------------------------------------------------------



  Date     :  20191129, Time     :  110250.326
  Time zero on CPU 1             :   0.448000000000000E+00  s.
  Internal wall clock time zero  :           344257370.326  s.

  FHI-aims created a unique identifier for this run for later identification
  aims_uuid : 3FA0F2DA-87C6-43FF-AEDB-0328E0BF8162

  Using       80 parallel tasks.
  Task        0 on host t036 reporting.
  Task        1 on host t036 reporting.
  Task        2 on host t036 reporting.
  Task        3 on host t036 reporting.
  Task        4 on host t036 reporting.
  Task        5 on host t036 reporting.
  Task        6 on host t036 reporting.
  Task        7 on host t036 reporting.
  Task        8 on host t036 reporting.
  Task        9 on host t036 reporting.
  Task       10 on host t036 reporting.
  Task       11 on host t036 reporting.
  Task       12 on host t036 reporting.
  Task       13 on host t036 reporting.
  Task       14 on host t036 reporting.
  Task       15 on host t036 reporting.
  Task       16 on host t036 reporting.
  Task       17 on host t036 reporting.
  Task       18 on host t036 reporting.
  Task       19 on host t036 reporting.
  Task       20 on host t035 reporting.
  Task       21 on host t035 reporting.
  Task       22 on host t035 reporting.
  Task       23 on host t035 reporting.
  Task       24 on host t035 reporting.
  Task       25 on host t035 reporting.
  Task       26 on host t035 reporting.
  Task       27 on host t035 reporting.
  Task       28 on host t035 reporting.
  Task       29 on host t035 reporting.
  Task       30 on host t035 reporting.
  Task       31 on host t035 reporting.
  Task       32 on host t035 reporting.
  Task       33 on host t035 reporting.
  Task       34 on host t035 reporting.
  Task       35 on host t035 reporting.
  Task       36 on host t035 reporting.
  Task       37 on host t035 reporting.
  Task       38 on host t035 reporting.
  Task       39 on host t035 reporting.
  Task       40 on host t034 reporting.
  Task       41 on host t034 reporting.
  Task       42 on host t034 reporting.
  Task       43 on host t034 reporting.
  Task       44 on host t034 reporting.
  Task       45 on host t034 reporting.
  Task       46 on host t034 reporting.
  Task       47 on host t034 reporting.
  Task       48 on host t034 reporting.
  Task       49 on host t034 reporting.
  Task       50 on host t034 reporting.
  Task       51 on host t034 reporting.
  Task       52 on host t034 reporting.
  Task       53 on host t034 reporting.
  Task       54 on host t034 reporting.
  Task       55 on host t034 reporting.
  Task       56 on host t034 reporting.
  Task       57 on host t034 reporting.
  Task       58 on host t034 reporting.
  Task       59 on host t034 reporting.
  Task       60 on host t033 reporting.
  Task       61 on host t033 reporting.
  Task       62 on host t033 reporting.
  Task       63 on host t033 reporting.
  Task       64 on host t033 reporting.
  Task       65 on host t033 reporting.
  Task       66 on host t033 reporting.
  Task       67 on host t033 reporting.
  Task       68 on host t033 reporting.
  Task       69 on host t033 reporting.
  Task       70 on host t033 reporting.
  Task       71 on host t033 reporting.
  Task       72 on host t033 reporting.
  Task       73 on host t033 reporting.
  Task       74 on host t033 reporting.
  Task       75 on host t033 reporting.
  Task       76 on host t033 reporting.
  Task       77 on host t033 reporting.
  Task       78 on host t033 reporting.
  Task       79 on host t033 reporting.

  Performing system and environment tests:
  | Environment variable OMP_NUM_THREADS correctly set to 1.
  | Stacksize not measured: no C compiler
  | Checking for scalapack...
  | Testing pdtran()...
  | All pdtran() tests passed.

  Obtaining array dimensions for all initial allocations:
  
  -----------------------------------------------------------------------
  Parsing control.in (first pass over file, find array dimensions only).
  The contents of control.in will be repeated verbatim below
  unless switched off by setting 'verbatim_writeout .false.' .
  in the first line of control.in .
  -----------------------------------------------------------------------
  
  #===============================================================================
  # FHI-aims file: ./control.in
  # Created using the Atomic Simulation Environment (ASE)
  # Wed Nov 27 20:14:32 2019
  #
  # List of parameters used to initialize the calculator:
  #     xc : pbe
  #     k_grid : [18, 18, 18]
  #     species_dir : /chemsoft/FHI-aims/stable/species_defaults/tight
  #     spin : none
  #     adjust_scf : once 2
  #     relativistic : ('atomic_zora', 'scalar')
  #===============================================================================
  xc                                 pbe
  many_body_dispersion
  k_grid                             18 18 18
  spin                               none
  adjust_scf                         once 2
  charge_mix_param 0.02
  ### geometry optimisation section
  relax_geometry    bfgs    1E-2
  relax_unit_cell       fixed_angles
  relativistic                       atomic_zora scalar
  #===============================================================================
  
  ################################################################################
  #
  #  FHI-aims code project
  # Volker Blum, Fritz Haber Institute Berlin, 2009
  #
  #  Suggested "tight" defaults for Mo atom (to be pasted into control.in file)
  #
  ################################################################################
    species        Mo
  #     global species definitions
      nucleus             42
      mass                95.94
  #
      l_hartree           6
  #
      cut_pot             4.0  2.0  1.0
      basis_dep_cutoff    1e-4
  #
      radial_base         59 7.0
      radial_multiplier   2
      angular_grids specified
        division   0.3117   50
        division   0.6750  110
        division   1.0351  194
        division   1.2073  302
        division   1.6402  434
  #      division   1.9185  590
  #      division   2.0237  770
  #      division   2.0980  974
  #      division   2.7972 1202
  #      outer_grid  974
        outer_grid  434
  ################################################################################
  #
  #  Definition of "minimal" basis
  #
  ################################################################################
  #     valence basis states
      valence      5  s   1.
      valence      4  p   6.
      valence      4  d   5.
  #     ion occupancy
      ion_occ     5  s   0.
      ion_occ     4  p   6.
      ion_occ     4  d   4.
  ################################################################################
  #
  #  Suggested additional basis functions. For production calculations,
  #  uncomment them one after another (the most important basis functions are
  #  listed first).
  #
  #  Constructed for dimers: 1.675 A, 1.9 A, 2.375 A, 3.00 A, 4.00 A
  #
  ################################################################################
  #  "First tier"  - max. impr. -711.23  meV, min. impr. -21.07 meV
       hydro 4 f 8.4
       hydro 3 d 2.8
       ionic 5 p auto
       hydro 5 g 12
       ionic 5 s auto
  #  "Second tier" - max. impr. -39.38  meV, min. impr. -2.68 meV
       hydro 4 f 12.4
       hydro 3 d 3.3
       hydro 6 h 17.2
       hydro 4 f 7.6
       hydro 3 p 3.0
       hydro 1 s 0.65
  #  "Third tier"  - max. impr. -5.50 meV, min. impr. -0.47 meV
  #     hydro 4 f 29.2
  #     hydro 5 g 11.2
  #     hydro 3 d 6.8
  #     hydro 6 h 14.8
  #     hydro 2 p 2.3
  #     hydro 4 s 3.8
  #  "Fourth tier"  - max. impr. -0.58 meV, min. impr. -0.19 meV
  #     hydro 5 f 6.8
  #     hydro 5 d 14.8
  #     hydro 6 s 7.8
  #     hydro 5 g 20.8
  #     hydro 5 d 10.4
  #     hydro 5 p 9.8
  #  Further functions - -0.17 meV and below
  #     hydro 5 d 3.2
  ################################################################################
  #
  #  FHI-aims code project
  # Volker Blum, Fritz Haber Institute Berlin, 2009
  #
  #  Suggested "tight" defaults for Te atom (to be pasted into control.in file)
  #
  ################################################################################
    species        Te
  #     global species definitions
      nucleus             52
      mass                127.60
  #
      l_hartree           6
  #
      cut_pot             4.0  2.0  1.0
      basis_dep_cutoff    1e-4
  #
      radial_base         64 7.0
      radial_multiplier   2
      angular_grids specified
        division   0.1259  110
        division   0.8959  194
        division   0.9864  302
        division   1.1196  434
  #      division   1.1922  590
  #      division   1.3098  770
  #      division   2.9404  974
  #      outer_grid  974
        outer_grid  434
  ################################################################################
  #
  #  Definition of "minimal" basis
  #
  ################################################################################
  #     valence basis states
      valence      5  s   2.
      valence      5  p   4.
      valence      4  d  10.
  #     ion occupancy
      ion_occ     5  s   1.
      ion_occ     5  p   3.
      ion_occ     4  d  10.
  ################################################################################
  #
  #  Suggested additional basis functions. For production calculations,
  #  uncomment them one after another (the most important basis functions are
  #  listed first).
  #
  #  Constructed for dimers: 2.15 A, 2.55 A, 3.10 A, 3.60 A, 4.50 A
  #
  ################################################################################
  #  "First tier" - max. impr. -217.34  meV, min. impr. -22.97 meV
       hydro 3 d 3.7
       hydro 4 f 6
       hydro 3 p 2.7
       ionic 5 s auto
  #  "Second tier" - max. impr. -17.80 meV, min. impr. -0.57 meV
       hydro 5 g 9
       hydro 4 f 16.4
       hydro 6 h 12
       hydro 4 p 6.4
       hydro 5 f 32.4
       hydro 4 d 5
       hydro 3 s 2.8
  #  "Third tier" - max. impr. -0.51 meV, min. impr. -0.06 meV
  #     hydro 5 f 8.4
  #     hydro 5 g 11.6
  #     hydro 6 h 15.6
  #     hydro 2 p 1.7
  #     hydro 4 d 9.6
  #     hydro 1 s 6.4
  #  Further functions that fell out of the optimization: -0.17 meV and below
  #     hydro 4 f 33.6
  #     hydro 5 d 6.8
  #     hydro 5 f 16
  
  -----------------------------------------------------------------------
  Completed first pass over input file control.in .
  -----------------------------------------------------------------------
  
  
  -----------------------------------------------------------------------
  Parsing geometry.in (first pass over file, find array dimensions only).
  The contents of geometry.in will be repeated verbatim below
  unless switched off by setting 'verbatim_writeout .false.' .
  in the first line of geometry.in .
  -----------------------------------------------------------------------
  
  #
  # This is the geometry file that corresponds to the current relaxation step.
  # If you do not want this file to be written, set the "write_restart_geometry" flag to .false.
  #  aims_uuid : F783C0FE-70F0-4D6F-A3B8-BC3753E6CF40
  #
  lattice_vector      3.49489595     -0.00000000      0.00000000
  lattice_vector     -1.74738526      3.02656005     -0.00000000
  lattice_vector     -0.00000000      0.00000000     13.96082078
  atom      -0.00248057      2.01917604      3.49148554 Mo
  atom       1.74988850      1.00739412     10.46932924 Mo
  atom       0.00223454      2.01617257     12.29825715 Te
  atom       1.74532045      1.01035390      5.31981198 Te
  atom       1.74534311      1.01038291      1.66251710 Te
  atom       0.00222604      2.01620062      8.64106133 Te
  #
  # What follows is the current estimated Hessian matrix constructed by the BFGS algorithm.
  # This is NOT the true Hessian matrix of the system.
  # If you do not want this information here, switch it off using the "hessian_to_restart_geometry" keyword.
  #
  trust_radius             0.0346746471
  hessian_block                1       1           8.250402          -2.918877           0.015203          -2.918877           4.89447
  hessian_block                1       2          -5.050185           2.922132          -0.015708           2.919420          -1.68967
  hessian_block                1       3           2.486620          -1.438549           0.006447          -1.438645           0.83252
  hessian_block                1       4          -3.085386           1.436174          -0.006225           1.436720          -1.43386
  hessian_block                1       5          -3.086378           1.436654          -0.006119           1.438408          -1.43495
  hessian_block                1       6           2.484928          -1.437535           0.006402          -1.437026           0.83148
  hessian_block                2       2           8.260537          -2.922700           0.014444          -2.922700           4.89518
  hessian_block                2       3          -3.091680           1.438822          -0.005812           1.440231          -1.43527
  hessian_block                2       4           2.485179          -1.436437           0.005582          -1.438224           0.83144
  hessian_block                2       5           2.486113          -1.436911           0.005471          -1.439983           0.83254
  hessian_block                2       6          -3.089964           1.437805          -0.005765           1.438544          -1.43422
  hessian_block                3       3           3.824365          -0.707253           0.073948          -0.707253           3.01156
  hessian_block                3       4          -1.220259           0.706087          -0.069552           0.706317          -0.40877
  hessian_block                3       5          -1.220834           0.706341          -0.068375           0.707133          -0.40936
  hessian_block                3       6           1.221788          -0.706762           0.073088          -0.706470           0.40932
  hessian_block                4       4           3.820603          -0.705187          -0.040688          -0.705187           3.01041
  hessian_block                4       5           1.219379          -0.705460          -0.039688          -0.705972           0.40915
  hessian_block                4       6          -1.219515           0.705833           0.043986           0.705334          -0.40837
  hessian_block                5       5           3.821675          -0.706229           0.069604          -0.706229           3.01141
  hessian_block                5       6          -1.219955           0.706643          -0.074365           0.705604          -0.40879
  hessian_block                6       6           3.822718          -0.705985          -0.043346          -0.705985           3.01059
  hessian_block_lv             1       1          30.387262           0.000000          -0.000000           0.000000          25.00000
  hessian_block_lv             1       2          -2.654235          -0.000000           0.000000           4.597270           0.00000
  hessian_block_lv             1       3           0.000000          -0.000000           0.000000          -0.000000           0.00000
  hessian_block_lv             2       2          26.307627          -2.264877           0.000000          -2.264877          28.92288
  hessian_block_lv             2       3          -0.000000           0.000000          -0.000000           0.000000          -0.00000
  hessian_block_lv             3       3          25.000000          -0.000000           0.000000          -0.000000          25.00000
  hessian_block_lv_atom        1       1          -7.679367           0.000000          -0.000000           4.399163          -0.00000
  hessian_block_lv_atom        1       2           7.653583          -0.000000           0.000000          -4.396758           0.00000
  hessian_block_lv_atom        1       3          -3.982240           0.000000          -0.000000           2.276112          -0.00000
  hessian_block_lv_atom        1       4           3.991447          -0.000000           0.000000          -2.282116           0.00000
  hessian_block_lv_atom        1       5           3.998685          -0.000000           0.000000          -2.277256           0.00000
  hessian_block_lv_atom        1       6          -3.982108           0.000000          -0.000000           2.280855          -0.00000
  hessian_block_lv_atom        2       1           3.847629          -6.664289           0.000000          -2.204574           3.81843
  hessian_block_lv_atom        2       2          -3.834983           6.642385          -0.000000           2.203395          -3.81639
  hessian_block_lv_atom        2       3           1.995409          -3.456149           0.000000          -1.140669           1.97569
  hessian_block_lv_atom        2       4          -1.999906           3.463938          -0.000000           1.143588          -1.98075
  hessian_block_lv_atom        2       5          -2.003466           3.470105          -0.000000           1.141230          -1.97666
  hessian_block_lv_atom        2       6           1.995317          -3.455990           0.000000          -1.142971           1.97968
  hessian_block_lv_atom        3       1          -0.000000           0.000000          -0.754691           0.000000          -0.00000
  hessian_block_lv_atom        3       2           0.000000          -0.000000           0.756945          -0.000000           0.00000
  hessian_block_lv_atom        3       3          -0.000000           0.000000          -0.459100           0.000000          -0.00000
  hessian_block_lv_atom        3       4           0.000000          -0.000000           0.458057          -0.000000           0.00000
  hessian_block_lv_atom        3       5           0.000000          -0.000000           0.457178          -0.000000           0.00000
  hessian_block_lv_atom        3       6          -0.000000           0.000000          -0.458389           0.000000          -0.00000
  
  -----------------------------------------------------------------------
  Completed first pass over input file geometry.in .
  -----------------------------------------------------------------------
  

  Basic array size parameters:
  | Number of species                 :        2
  | Number of atoms                   :        6
  | Number of lattice vectors         :        3
  | Max. basis fn. angular momentum   :        5
  | Max. atomic/ionic basis occupied n:        5
  | Max. number of basis fn. types    :        3
  | Max. radial fns per species/type  :       11
  | Max. logarithmic grid size        :     1454
  | Max. radial integration grid size :      129
  | Max. angular integration grid size:      434
  | Max. angular grid division number :        8
  | Radial grid for Hartree potential :     1454
  | Number of spin channels           :        1

------------------------------------------------------------
          Reading file control.in.
------------------------------------------------------------
  XC: Using PBE gradient-corrected functionals.
  Using the default MBD implementation with analytical forces
  Found k-point grid:        18        18        18
  Spin treatment: No spin polarisation.
  S.C.F. convergence parameters will be adjusted in iteration number     2 of the first full s.c.f. cycle only.
  Charge density mixing - mixing parameter:     0.0200
  Geometry relaxation: Modified BFGS - TRM (trust radius method, i.e., trusted quadratic extrapolation).
  Convergence accuracy for geometry relaxation: Maximum force <   0.100000E-01 eV/A.
  Scalar relativistic treatment of kinetic energy: on-site free-atom approximation to ZORA.
 
  Reading configuration options for species Mo                  .
  | Found nuclear charge :  42.0000
  | Found atomic mass :    95.9400000000000      amu
  | Found l_max for Hartree potential  :   6
  | Found cutoff potl. onset [A], width [A], scale factor :    4.00000    2.00000    1.00000
  | Threshold for basis-dependent cutoff potential is   0.100000E-03
  | Found data for basic radial integration grid :    59 points, outermost radius =    7.000 A
  | Found multiplier for basic radial grid :   2
  | Found angular grid specification: user-specified.
  | Specified grid contains     6 separate shells.
  | Check grid settings after all constraints further below.
  | Found free-atom valence shell :  5 s   1.000
  | Found free-atom valence shell :  4 p   6.000
  | Found free-atom valence shell :  4 d   5.000
  | Found free-ion valence shell :  5 s   0.000
  | Found free-ion valence shell :  4 p   6.000
  | Found free-ion valence shell :  4 d   4.000
  | Found hydrogenic basis function :  4 f   8.400
  | Found hydrogenic basis function :  3 d   2.800
  | Found ionic basis function :  5 p , default cutoff radius.
  | Found hydrogenic basis function :  5 g  12.000
  | Found ionic basis function :  5 s , default cutoff radius.
  | Found hydrogenic basis function :  4 f  12.400
  | Found hydrogenic basis function :  3 d   3.300
  | Found hydrogenic basis function :  6 h  17.200
  | Found hydrogenic basis function :  4 f   7.600
  | Found hydrogenic basis function :  3 p   3.000
  | Found hydrogenic basis function :  1 s   0.650
  Species Mo                  : Missing cutoff potential type.
  Defaulting to exp(1/x)/(1-x)^2 type cutoff potential.
  Species Mo: No 'logarithmic' tag. Using default grid for free atom:
  | Default logarithmic grid data [bohr] : 0.1000E-03 0.1000E+03 0.1012E+01
  | Will include ionic basis functions of  2.0-fold positive Mo                   ion.
  Species Mo: On-site basis accuracy parameter (for Gram-Schmidt orthonormalisation) not specified.
  Using default value basis_acc =  0.1000000E-03.
  Species Mo                  : Using default innermost maximum threshold i_radial=  2 for radial functions.
  Species Mo                  : Default cutoff onset for free atom density etc. : 0.40000000E+01 AA.
  Species Mo                  : Basic radial grid will be enhanced according to radial_multiplier =   2, to contain   119 grid points.
 
  Reading configuration options for species Te                  .
  | Found nuclear charge :  52.0000
  | Found atomic mass :    127.600000000000      amu
  | Found l_max for Hartree potential  :   6
  | Found cutoff potl. onset [A], width [A], scale factor :    4.00000    2.00000    1.00000
  | Threshold for basis-dependent cutoff potential is   0.100000E-03
  | Found data for basic radial integration grid :    64 points, outermost radius =    7.000 A
  | Found multiplier for basic radial grid :   2
  | Found angular grid specification: user-specified.
  | Specified grid contains     5 separate shells.
  | Check grid settings after all constraints further below.
  | Found free-atom valence shell :  5 s   2.000
  | Found free-atom valence shell :  5 p   4.000
  | Found free-atom valence shell :  4 d  10.000
  | Found free-ion valence shell :  5 s   1.000
  | Found free-ion valence shell :  5 p   3.000
  | Found free-ion valence shell :  4 d  10.000
  | Found hydrogenic basis function :  3 d   3.700
  | Found hydrogenic basis function :  4 f   6.000
  | Found hydrogenic basis function :  3 p   2.700
  | Found ionic basis function :  5 s , default cutoff radius.
  | Found hydrogenic basis function :  5 g   9.000
  | Found hydrogenic basis function :  4 f  16.400
  | Found hydrogenic basis function :  6 h  12.000
  | Found hydrogenic basis function :  4 p   6.400
  | Found hydrogenic basis function :  5 f  32.400
  | Found hydrogenic basis function :  4 d   5.000
  | Found hydrogenic basis function :  3 s   2.800
  Species Te                  : Missing cutoff potential type.
  Defaulting to exp(1/x)/(1-x)^2 type cutoff potential.
  Species Te: No 'logarithmic' tag. Using default grid for free atom:
  | Default logarithmic grid data [bohr] : 0.1000E-03 0.1000E+03 0.1012E+01
  | Will include ionic basis functions of  2.0-fold positive Te                   ion.
  Species Te: On-site basis accuracy parameter (for Gram-Schmidt orthonormalisation) not specified.
  Using default value basis_acc =  0.1000000E-03.
  Species Te                  : Using default innermost maximum threshold i_radial=  2 for radial functions.
  Species Te                  : Default cutoff onset for free atom density etc. : 0.40000000E+01 AA.
  Species Te                  : Basic radial grid will be enhanced according to radial_multiplier =   2, to contain   129 grid points.
  | MBD: Using the same k-grid sampling as DFT
 
  Finished reading input file 'control.in'. Consistency checks are next.
 
  MPI_IN_PLACE appears to work with this MPI implementation.
  | Keeping use_mpi_in_place .true. (see manual).
  Target number of points in a grid batch is not set. Defaulting to  100
  Method for grid partitioning is not set. Defaulting to parallel hash+maxmin partitioning.
  Batch size limit is not set. Defaulting to    200
  By default, will store active basis functions for each batch.
  If in need of memory, prune_basis_once .false. can be used to disable this option.
  communication_type for Hartree potential was not specified.
  Defaulting to calc_hartree .
  Defaulting to Pulay charge density mixer.
  Pulay mixer: Number of relevant iterations not set.
  Defaulting to    8 iterations.
  Pulay mixer: Number of initial linear mixing iterations not set.
  Defaulting to    0 iterations.
  Work space size for distributed Hartree potential not set.
  Defaulting to   0.200000E+03 MB.
  Algorithm-dependent basis array size parameters:
  | n_max_pulay                         :        8
 * Notice: The s.c.f. convergence criterion sc_accuracy_rho was not provided.
 * We used to stop in this case, and ask the user to provide reasonable
 * scf convergence criteria. However, this led some users to employ criteria
 * that led to extremely long run times, e.g., for simple relaxation.
 * We now preset a default value for sc_accuracy_rho if it is not set.
 * You may still wish to check if this setting is too tight or too loose for your needs.
 * Based on n_atoms, FHI-aims chose sc_accuracy_rho =  0.100000E-05 .
  Maximum number of self-consistency iterations not provided.
  Presetting  1000 iterations.
  Presetting      1001 iterations before the initial mixing cycle
  is restarted anyway using the sc_init_iter criterion / keyword.
  Presetting a factor      1.000 between actual scf density residual
  and density convergence criterion sc_accuracy_rho below which sc_init_iter
  takes no effect.
 * No s.c.f. convergence criteria (sc_accuracy_*) were provided in control.in.
 * The run will proceed with a reasonable default guess, but please check whether.
 * the s.c.f. cycles seem to take too much or too little time.
  No maximum number of relaxation steps, defaulting to     1000
  Using explicit Hessian from geometry.in.
  No maximum energy tolerance for TRM/BFGS moves, defaulting to   0.200000E-03
  No harmonic length scale. Defaulting to   0.250000E-01 A.
  No trust radius initializer. Defaulting to   0.200000E+00 A.
  Unit cell relaxation: Restricted relaxation with fixed angles between lattice vectors.
  Unit cell relaxation: Analytical stress will be used.
  Analytical stress will be computed.
  Analytical stress calculation: Only the upper triangle is calculated.
                                 Final output is symmetrized.
  Analytical stress calculation: scf convergence accuracy of stress not set.
                                 Analytical stress self-consistency will not be checked explicitly.
                                 Be sure to set other criteria like sc_accuracy_rho tight enough.
  Force calculation: scf convergence accuracy of forces not set.
  Defaulting to 'sc_accuracy_forces not_checked'.
  Handling of forces: Unphysical translation and rotation will be removed from forces.
  No accuracy limit for integral partition fn. given. Defaulting to  0.1000E-14.
  No threshold value for u(r) in integrations given. Defaulting to  0.1000E-05.
  No occupation type (smearing scheme) given. Defaulting to Gaussian broadening, width =  0.1000E-01 eV.
  The width will be adjusted in iteration number     2 of the first full s.c.f. cycle only.
  S.C.F. convergence parameters will be adjusted in iteration number     2 of the first full s.c.f. cycle only.
  No accuracy for occupation numbers given. Defaulting to  0.1000E-12.
  No threshold value for occupation numbers given. Defaulting to  0.0000E+00.
  No accuracy for fermi level given. Defaulting to  0.1000E-19.
  Maximum # of iterations to find E_F not set. Defaulting to  200.
  Preferred method for the eigenvalue solver ('KS_method') not specified in 'control.in'.
  Defaulting to serial version, 'lapack_fast', since more k-points than CPUs available.
  Will not use alltoall communication since running on < 1024 CPUs.
  Threshold for basis singularities not set.
  Default threshold for basis singularities:  0.1000E-04
  partition_type (choice of integration weights) for integrals was not specified.
  | Using a version of the partition function of Stratmann and coworkers ('stratmann_smoother').
  | At each grid point, the set of atoms used to build the partition table is smoothly restricted to
  | only those atoms whose free-atom density would be non-zero at that grid point.
  Partitioning for Hartree potential was not defined. Using partition_type for integrals.
  | Adjusted default value of keyword multip_moments_threshold to:       0.10000000E-11
  | This value may affect high angular momentum components of the Hartree potential in periodic systems.
  Angular momentum expansion for Kerker preconditioner not set explicitly.
  | Using default value of   0
  No explicit requirement for turning off preconditioner.
  | By default, it will be turned off when the charge convergence reaches
  | sc_accuracy_rho  =   0.100000E-05
  No special mixing parameter while Kerker preconditioner is on.
  Using default: charge_mix_param =     0.0200.
  No q(lm)/r^(l+1) cutoff set for long-range Hartree potential.
  | Using default value of  0.100000E-09 .
  | Verify using the multipole_threshold keyword.
  Defaulting to new monopole extrapolation.
  Density update method: automatic selection selected.
  Using density matrix based charge density update.
  Using density matrix based charge density update.
  Using packed matrix style: index .
  Geometry relaxation: A file "geometry.in.next_step" is written out by default after each step.
  | This file contains the geometry of the current relaxation step as well as
  | the current Hessian matrix needed to restart the relaxation algorithm.
  | If you do not want part or all of this information, use the keywords
  | "write_restart_geometry" or "hessian_to_restart_geometry" to switch the output off.
  Defaulting to use time-reversal symmetry for k-point grid.
------------------------------------------------------------


------------------------------------------------------------
          Reading geometry description geometry.in.
------------------------------------------------------------
  Input structure read successfully.
  The structure contains        6 atoms,  and a total of        292.000 electrons.

  Input geometry:
  | Unit cell:
  |        3.49489595        0.00000000        0.00000000
  |       -1.74738526        3.02656005        0.00000000
  |        0.00000000        0.00000000       13.96082078
  | Atomic structure:
  |       Atom                x [A]            y [A]            z [A]
  |    1: Species Mo           -0.00248057        2.01917604        3.49148554
  |    2: Species Mo            1.74988850        1.00739412       10.46932924
  |    3: Species Te            0.00223454        2.01617257       12.29825715
  |    4: Species Te            1.74532045        1.01035390        5.31981198
  |    5: Species Te            1.74534311        1.01038291        1.66251710
  |    6: Species Te            0.00222604        2.01620062        8.64106133

  Lattice parameters for 3D lattice (in Angstroms) :     3.494896    3.494771   13.960821
  Angle(s) between unit vectors (in degrees)      :    90.000000   90.000000  120.000000

  |

  | The smallest distance between any two atoms is         2.72265319 AA.
  |
  | The first atom of this pair is atom number                      1 .
  | The second atom of this pair is atom number                     4 .
  | Wigner-Seitz cell of the first atom image           0     1     0 .
  | (The Wigner-Seitz cell of the second atom is 0 0 0  by definition.)

  Quantities derived from the lattice vectors:
  | Reciprocal lattice vector 1:  1.797818  1.037970  0.000000
  | Reciprocal lattice vector 2:  0.000000  2.076015  0.000000
  | Reciprocal lattice vector 3:  0.000000  0.000000  0.450058
  | Unit cell volume                               :   0.147671E+03  A^3

  Range separation radius for Ewald summation (hartree_convergence_parameter):      4.19213429 bohr.

  Fractional coordinates:
                         L1                L2                L3
       atom_frac         0.33285433        0.66715215        0.25009171  Mo
       atom_frac         0.66711793        0.33285119        0.74990786  Mo
       atom_frac         0.33370731        0.66615978        0.88091219  Te
       atom_frac         0.66629982        0.33382913        0.38105295  Te
       atom_frac         0.66631110        0.33383871        0.11908448  Te
       atom_frac         0.33370951        0.66616905        0.61895081  Te

  Number of empty states per atom not set in control.in - providing a guess from actual geometry.
  | Total number of empty states used during s.c.f. cycle:       33
  If you use a very high smearing, use empty_states (per atom!) in control.in to increase this value.

  Structure-dependent array size parameters: 
  | Maximum number of distinct radial functions  :       43
  | Maximum number of basis functions            :      510
  | Number of Kohn-Sham states (occupied + empty):      179
------------------------------------------------------------

------------------------------------------------------------
          Preparing all fixed parts of the calculation.
------------------------------------------------------------
  Determining machine precision:
    2.225073858507201E-308
  Setting up grids for atomic and cluster calculations.

  Creating wave function, potential, and density for free atoms.

  Species: Mo

  List of occupied orbitals and eigenvalues:
    n    l              occ      energy [Ha]    energy [eV]
    1    0           2.0000      -745.344654    -20281.8600
    2    0           2.0000      -103.288246     -2810.6162
    3    0           2.0000       -17.516687      -476.6533
    4    0           2.0000        -2.358559       -64.1796
    5    0           1.0000        -0.145159        -3.9500
    2    1           6.0000       -92.308627     -2511.8455
    3    1           6.0000       -13.936005      -379.2180
    4    1           6.0000        -1.408138       -38.3174
    3    2          10.0000        -8.119011      -220.9295
    4    2           5.0000        -0.132984        -3.6187


  Species: Te

  List of occupied orbitals and eigenvalues:
    n    l              occ      energy [Ha]    energy [eV]
    1    0           2.0000     -1205.196269    -32795.0591
    2    0           2.0000      -179.435283     -4882.6825
    3    0           2.0000       -35.515934      -966.4377
    4    0           2.0000        -6.038599      -164.3187
    5    0           2.0000        -0.553449       -15.0601
    2    1           6.0000      -160.997293     -4380.9593
    3    1           6.0000       -29.570439      -804.6526
    4    1           6.0000        -4.201054      -114.3165
    5    1           4.0000        -0.217175        -5.9096
    3    2          10.0000       -20.601415      -560.5930
    4    2          10.0000        -1.529160       -41.6105

  Creating fixed part of basis set: Ionic, confined, hydrogenic.
 
  Mo                   ion:

  List of free ionic orbitals and eigenvalues:
    n    l      energy [Ha]    energy [eV]
    1    0      -746.048685    -20301.0176
    2    0      -103.980912     -2829.4646
    3    0       -18.206601      -495.4268
    4    0        -3.040545       -82.7374
    2    1       -93.001013     -2530.6863
    3    1       -14.625827      -397.9890
    4    1        -2.084855       -56.7318
    3    2        -8.808854      -239.7011
    4    2        -0.765435       -20.8285


  List of ionic basis orbitals and eigenvalues:
    n    l      energy [Ha]    energy [eV]    outer radius [A]
    5    1        -0.465587       -12.6693       5.456393
    5    0        -0.650331       -17.6964       5.390095

 
  Mo                   hydrogenic:
 
  List of hydrogenic basis orbitals: 
    n    l      effective z      eigenvalue [eV]  inner max. [A]     outer max. [A]     outer radius [A]   
    4    3         8.400000       -60.0010           1.009788           1.009788           4.487018
    3    2         2.800000       -11.8048           1.687401           1.687401           5.456393
    5    4        12.000000       -78.3687           1.100005           1.100005           4.432498
    4    3        12.400000      -130.7506           0.682864           0.682864           3.428897
    3    2         3.300000       -16.4532           1.439455           1.439455           5.456393
    6    5        17.200000      -111.8085           1.113535           1.113535           4.169676
    4    3         7.600000       -49.1164           1.113535           1.113535           4.828511
    3    1         3.000000       -13.5316           0.528251           2.102736           5.456393
    1    0         0.650000        -5.7375           0.810333           0.810333           5.456393
 
 
  Te                   ion:

  List of free ionic orbitals and eigenvalues:
    n    l      energy [Ha]    energy [eV]
    1    0     -1206.001395    -32816.9677
    2    0      -180.213456     -4903.8576
    3    0       -36.289734      -987.4939
    4    0        -6.806662      -185.2187
    5    0        -1.230780       -33.4912
    2    1      -161.775412     -4402.1329
    3    1       -30.344117      -825.7054
    4    1        -4.968097      -135.1888
    5    1        -0.843350       -22.9487
    3    2       -21.374869      -581.6398
    4    2        -2.290936       -62.3395


  List of ionic basis orbitals and eigenvalues:
    n    l      energy [Ha]    energy [eV]    outer radius [A]
    5    0        -1.230774       -33.4911       4.407087

 
  Te                   hydrogenic:
 
  List of hydrogenic basis orbitals: 
    n    l      effective z      eigenvalue [eV]  inner max. [A]     outer max. [A]     outer radius [A]   
    3    2         3.700000       -20.6934           1.282089           1.282089           5.425112
    4    3         6.000000       -30.6116           1.413813           1.413813           5.359194
    3    1         2.700000       -10.8497           0.586309           2.305482           5.491841
    5    4         9.000000       -44.0820           1.466627           1.466627           5.359194
    4    3        16.400000      -228.7117           0.518841           0.518841           2.803558
    6    5        12.000000       -54.4224           1.578248           1.578248           5.359194
    4    1         6.400000       -34.8270           0.234387           1.942819           5.425112
    5    3        32.400000      -571.3085           0.199946           0.538222           2.249797
    4    2         5.000000       -21.2056           0.721745           2.249797           5.491841
    3    0         2.800000       -11.6572           0.140264           2.450800           5.491841
 

  Adding cutoff potential to free-atom effective potential.
  Creating atomic-like basis functions for current effective potential.

  Species Mo                  :

  List of atomic basis orbitals and eigenvalues:
    n    l      energy [Ha]    energy [eV]    outer radius [A]
    1    0      -745.344654    -20281.8600       0.247552
    2    0      -103.288246     -2810.6162       0.682864
    3    0       -17.516687      -476.6533       1.626637
    4    0        -2.358559       -64.1796       4.220963
    5    0        -0.145159        -3.9500       5.456393
    2    1       -92.308627     -2511.8455       0.699766
    3    1       -13.936005      -379.2180       1.793761
    4    1        -1.408138       -38.3174       4.828511
    3    2        -8.119011      -220.9295       2.181285
    4    2        -0.132984        -3.6187       5.390095


  Species Te                  :

  List of atomic basis orbitals and eigenvalues:
    n    l      energy [Ha]    energy [eV]    outer radius [A]
    1    0     -1205.196269    -32795.0591       0.195117
    2    0      -179.435283     -4882.6825       0.531683
    3    0       -35.515934      -966.4377       1.176937
    4    0        -6.038599      -164.3187       2.735843
    5    0        -0.553449       -15.0601       5.294077
    2    1      -160.997293     -4380.9593       0.544843
    3    1       -29.570439      -804.6526       1.266511
    4    1        -4.201054      -114.3165       3.168123
    5    1        -0.217175        -5.9096       5.425112
    3    2       -20.601415      -560.5930       1.431203
    4    2        -1.529160       -41.6105       4.627949

  Assembling full basis from fixed parts.
  | Species Mo :   atomic orbital   1 s accepted.
  | Species Mo :   atomic orbital   2 s accepted.
  | Species Mo :   atomic orbital   3 s accepted.
  | Species Mo :   atomic orbital   4 s accepted.
  | Species Mo :    ionic orbital   5 s accepted.
  | Species Mo :   atomic orbital   5 s accepted.
  | Species Mo :    hydro orbital   1 s accepted.
  | Species Mo :   atomic orbital   2 p accepted.
  | Species Mo :   atomic orbital   3 p accepted.
  | Species Mo :   atomic orbital   4 p accepted.
  | Species Mo :    ionic orbital   5 p accepted.
  | Species Mo :    hydro orbital   3 p accepted.
  | Species Mo :   atomic orbital   3 d accepted.
  | Species Mo :   atomic orbital   4 d accepted.
  | Species Mo :    hydro orbital   3 d accepted.
  | Species Mo :    hydro orbital   3 d accepted.
  | Species Mo :    hydro orbital   4 f accepted.
  | Species Mo :    hydro orbital   4 f accepted.
  | Species Mo :    hydro orbital   4 f accepted.
  | Species Mo :    hydro orbital   5 g accepted.
  | Species Mo :    hydro orbital   6 h accepted.
  | Species Te :   atomic orbital   1 s accepted.
  | Species Te :   atomic orbital   2 s accepted.
  | Species Te :   atomic orbital   3 s accepted.
  | Species Te :   atomic orbital   4 s accepted.
  | Species Te :    ionic orbital   5 s accepted.
  | Species Te :   atomic orbital   5 s accepted.
  | Species Te :    hydro orbital   3 s accepted.
  | Species Te :   atomic orbital   2 p accepted.
  | Species Te :   atomic orbital   3 p accepted.
  | Species Te :   atomic orbital   4 p accepted.
  | Species Te :   atomic orbital   5 p accepted.
  | Species Te :    hydro orbital   4 p accepted.
  | Species Te :    hydro orbital   3 p accepted.
  | Species Te :   atomic orbital   3 d accepted.
  | Species Te :   atomic orbital   4 d accepted.
  | Species Te :    hydro orbital   3 d accepted.
  | Species Te :    hydro orbital   4 d accepted.
  | Species Te :    hydro orbital   5 f accepted.
  | Species Te :    hydro orbital   4 f accepted.
  | Species Te :    hydro orbital   4 f accepted.
  | Species Te :    hydro orbital   5 g accepted.
  | Species Te :    hydro orbital   6 h accepted.
 
  Basis size parameters after reduction:
  | Total number of radial functions:       43
  | Total number of basis functions :      510
 
  Per-task memory consumption for arrays in subroutine allocate_ext:
  |          16.019416MB.
  Testing on-site integration grid accuracy.
  |  Species  Function  <phi|h_atom|phi> (log., in eV)  <phi|h_atom|phi> (rad., in eV)
           1        1             -20281.8599610543             -20281.8584300616
           1        2              -2810.6161812280              -2810.6161551921
           1        3               -476.6533163555               -476.6533136395
           1        4                -64.1796433667                -64.1796426456
           1        5                 -3.3691762756                 -3.3691802887
           1        6                  4.4704608512                  4.4699102345
           1        7                 47.6285199283                 47.6283663304
           1        8              -2511.8455406047              -2511.8455385741
           1        9               -379.2179896350               -379.2179882338
           1       10                -38.3173891619                -38.3173886619
           1       11                  0.2493245095                  0.2492931069
           1       12                 12.9899978429                 12.9896957264
           1       13               -220.9295301098               -220.9295297081
           1       14                 -3.6195697699                 -3.6195754704
           1       15                  7.1428000922                  7.1426882355
           1       16                 20.1860643586                 20.1854440119
           1       17                 39.6800378350                 39.6800378704
           1       18                 41.9987405107                 41.9987406673
           1       19                 51.4938078473                 51.4938137886
           1       20                 50.2449608881                 50.2449608586
           1       21                 84.8920029004                 84.8920028797
           2       22             -32795.0590846454             -32795.0556605232
           2       23              -4882.6824813465              -4882.6824159868
           2       24               -966.4377413866               -966.4377361228
           2       25               -164.3186507888               -164.3186490966
           2       26                -14.8855865446                -14.8855862180
           2       27                  5.2437428292                  5.2437525172
           2       28                 11.1990165547                 11.1992684860
           2       29              -4380.9592556630              -4380.9592506320
           2       30               -804.6525815679               -804.6525796130
           2       31               -114.3164854912               -114.3164843738
           2       32                 -5.9109395843                 -5.9109349312
           2       33                 11.2960142424                 11.2960193078
           2       34                 11.0222944053                 11.0227420003
           2       35               -560.5930245701               -560.5930241259
           2       36                -41.6105488448                -41.6105483746
           2       37                  5.2198476695                  5.2198521163
           2       38                 17.1207565320                 17.1208262527
           2       39                200.5097003826                200.5097004391
           2       40                168.6935008916                168.6935018573
           2       41                 18.2186318522                 18.2186347166
           2       42                 29.0453900150                 29.0453912086
           2       43                 42.4071998935                 42.4072011778

  Preparing densities etc. for the partition functions (integrals / Hartree potential).

  Preparations completed.
  max(cpu_time)          :      0.560 s.
  Wall clock time (cpu1) :      0.549 s.
------------------------------------------------------------

------------------------------------------------------------
          Begin self-consistency loop: Initialization.

          Date     :  20191129, Time     :  110250.956
------------------------------------------------------------

  Initializing index lists of integration centers etc. from given atomic structure:
  Mapping all atomic coordinates to central unit cell.

  Initializing the k-points
          Using symmetry for reducing the k-points
  | k-points reduced from:     5832 to     2920
  | Number of k-points                             :      2920
  The eigenvectors in the calculations are COMPLEX.
  | K-points in task   0:        36
  | K-points in task   1:        37
  | K-points in task   2:        37
  | K-points in task   3:        37
  | K-points in task   4:        37
  | K-points in task   5:        37
  | K-points in task   6:        37
  | K-points in task   7:        37
  | K-points in task   8:        37
  | K-points in task   9:        37
  | K-points in task  10:        37
  | K-points in task  11:        37
  | K-points in task  12:        37
  | K-points in task  13:        37
  | K-points in task  14:        37
  | K-points in task  15:        37
  | K-points in task  16:        37
  | K-points in task  17:        37
  | K-points in task  18:        37
  | K-points in task  19:        37
  | K-points in task  20:        37
  | K-points in task  21:        37
  | K-points in task  22:        37
  | K-points in task  23:        37
  | K-points in task  24:        37
  | K-points in task  25:        37
  | K-points in task  26:        37
  | K-points in task  27:        37
  | K-points in task  28:        37
  | K-points in task  29:        37
  | K-points in task  30:        37
  | K-points in task  31:        37
  | K-points in task  32:        37
  | K-points in task  33:        37
  | K-points in task  34:        37
  | K-points in task  35:        37
  | K-points in task  36:        37
  | K-points in task  37:        37
  | K-points in task  38:        37
  | K-points in task  39:        37
  | K-points in task  40:        37
  | K-points in task  41:        36
  | K-points in task  42:        36
  | K-points in task  43:        36
  | K-points in task  44:        36
  | K-points in task  45:        36
  | K-points in task  46:        36
  | K-points in task  47:        36
  | K-points in task  48:        36
  | K-points in task  49:        36
  | K-points in task  50:        36
  | K-points in task  51:        36
  | K-points in task  52:        36
  | K-points in task  53:        36
  | K-points in task  54:        36
  | K-points in task  55:        36
  | K-points in task  56:        36
  | K-points in task  57:        36
  | K-points in task  58:        36
  | K-points in task  59:        36
  | K-points in task  60:        36
  | K-points in task  61:        36
  | K-points in task  62:        36
  | K-points in task  63:        36
  | K-points in task  64:        36
  | K-points in task  65:        36
  | K-points in task  66:        36
  | K-points in task  67:        36
  | K-points in task  68:        36
  | K-points in task  69:        36
  | K-points in task  70:        36
  | K-points in task  71:        36
  | K-points in task  72:        36
  | K-points in task  73:        36
  | K-points in task  74:        36
  | K-points in task  75:        36
  | K-points in task  76:        36
  | K-points in task  77:        36
  | K-points in task  78:        36
  | K-points in task  79:        36
  | Number of basis functions in the Hamiltonian integrals :     10668
  | Number of basis functions in a single unit cell        :       510
  | Number of centers in hartree potential         :      1244
  | Number of centers in hartree multipole         :       690
  | Number of centers in electron density summation:       514
  | Number of centers in basis integrals           :       538
  | Number of centers in integrals                 :       204
  | Number of centers in hamiltonian               :       518
  | Consuming       7026 KiB for k_phase.
  | Number of super-cells (origin) [n_cells]                     :         845
  | Number of super-cells (after PM_index) [n_cells]             :         154
  | Number of super-cells in hamiltonian [n_cells_in_hamiltonian]:         154
  | Size of matrix packed + index [n_hamiltonian_matrix_size] :     2820433
  Initializing relaxation algorithms.
  Partitioning the integration grid into batches with parallel hashing+maxmin method.
  | Number of batches:     2298
  | Maximal batch size:     115
  | Minimal batch size:      53
  | Average batch size:      81.252
  | Standard deviation of batch sizes:      13.125

  Integration load balanced across    80 MPI tasks.
  Work distribution over tasks is as follows:
  Task     0 has       2358 integration points.
  Task     1 has       2306 integration points.
  Task     2 has       2305 integration points.
  Task     3 has       2308 integration points.
  Task     4 has       2357 integration points.
  Task     5 has       2337 integration points.
  Task     6 has       2348 integration points.
  Task     7 has       2306 integration points.
  Task     8 has       2307 integration points.
  Task     9 has       2305 integration points.
  Task    10 has       2339 integration points.
  Task    11 has       2348 integration points.
  Task    12 has       2351 integration points.
  Task    13 has       2355 integration points.
  Task    14 has       2357 integration points.
  Task    15 has       2344 integration points.
  Task    16 has       2355 integration points.
  Task    17 has       2359 integration points.
  Task    18 has       2355 integration points.
  Task    19 has       2309 integration points.
  Task    20 has       2348 integration points.
  Task    21 has       2353 integration points.
  Task    22 has       2318 integration points.
  Task    23 has       2333 integration points.
  Task    24 has       2303 integration points.
  Task    25 has       2321 integration points.
  Task    26 has       2310 integration points.
  Task    27 has       2397 integration points.
  Task    28 has       2323 integration points.
  Task    29 has       2354 integration points.
  Task    30 has       2351 integration points.
  Task    31 has       2355 integration points.
  Task    32 has       2305 integration points.
  Task    33 has       2357 integration points.
  Task    34 has       2350 integration points.
  Task    35 has       2349 integration points.
  Task    36 has       2358 integration points.
  Task    37 has       2303 integration points.
  Task    38 has       2308 integration points.
  Task    39 has       2361 integration points.
  Task    40 has       2317 integration points.
  Task    41 has       2320 integration points.
  Task    42 has       2360 integration points.
  Task    43 has       2309 integration points.
  Task    44 has       2329 integration points.
  Task    45 has       2353 integration points.
  Task    46 has       2341 integration points.
  Task    47 has       2357 integration points.
  Task    48 has       2357 integration points.
  Task    49 has       2359 integration points.
  Task    50 has       2359 integration points.
  Task    51 has       2399 integration points.
  Task    52 has       2351 integration points.
  Task    53 has       2323 integration points.
  Task    54 has       2305 integration points.
  Task    55 has       2352 integration points.
  Task    56 has       2302 integration points.
  Task    57 has       2303 integration points.
  Task    58 has       2320 integration points.
  Task    59 has       2351 integration points.
  Task    60 has       2335 integration points.
  Task    61 has       2304 integration points.
  Task    62 has       2329 integration points.
  Task    63 has       2302 integration points.
  Task    64 has       2302 integration points.
  Task    65 has       2325 integration points.
  Task    66 has       2336 integration points.
  Task    67 has       2303 integration points.
  Task    68 has       2345 integration points.
  Task    69 has       2305 integration points.
  Task    70 has       2355 integration points.
  Task    71 has       2323 integration points.
  Task    72 has       2311 integration points.
  Task    73 has       2317 integration points.
  Task    74 has       2320 integration points.
  Task    75 has       2303 integration points.
  Task    76 has       2353 integration points.
  Task    77 has       2355 integration points.
  Task    78 has       2336 integration points.
  Task    79 has       2324 integration points.
  Initializing partition tables, free-atom densities, potentials, etc. across the integration grid (initialize_grid_storage).
  | initialize_grid_storage: Actual outermost partition radius vs. multipole_radius_free
  | (-- VB: in principle, multipole_radius_free should be larger, hence this output)
  | Species        1: Confinement radius =              6.000000000000000 AA, multipole_radius_free =              6.016994434057369 AA.
  | Species        1: outer_partition_radius set to              6.016994434057369 AA .
  | Species        2: Confinement radius =              6.000000000000000 AA, multipole_radius_free =              6.056084577048819 AA.
  | Species        2: outer_partition_radius set to              6.056084577048819 AA .
  | Original list of interatomic distances with         538 x        538 entries is created.
  | Net number of integration points:   186716
  | of which are non-zero points    :   156076
  | Numerical average free-atom electrostatic potential    :    -20.58699307 eV
  Renormalizing the initial density to the exact electron count on the 3D integration grid.
  | Initial density: Formal number of electrons (from input files) :     292.0000000000
  | Integrated number of electrons on 3D grid     :     291.9998322337
  | Charge integration error                      :      -0.0001677663
  | Normalization factor for density and gradient :       1.0000005745
  Obtaining max. number of non-zero basis functions in each batch (get_n_compute_maxes).
  | Maximal number of non-zero basis functions:     1957 in task     0
  | Maximal number of non-zero basis functions:     2072 in task     1
  | Maximal number of non-zero basis functions:     1998 in task     2
  | Maximal number of non-zero basis functions:     1908 in task     3
  | Maximal number of non-zero basis functions:     2020 in task     4
  | Maximal number of non-zero basis functions:     1993 in task     5
  | Maximal number of non-zero basis functions:     1984 in task     6
  | Maximal number of non-zero basis functions:     1973 in task     7
  | Maximal number of non-zero basis functions:     2014 in task     8
  | Maximal number of non-zero basis functions:     2083 in task     9
  | Maximal number of non-zero basis functions:     2085 in task    10
  | Maximal number of non-zero basis functions:     1964 in task    11
  | Maximal number of non-zero basis functions:     1908 in task    12
  | Maximal number of non-zero basis functions:     1933 in task    13
  | Maximal number of non-zero basis functions:     2070 in task    14
  | Maximal number of non-zero basis functions:     2000 in task    15
  | Maximal number of non-zero basis functions:     1960 in task    16
  | Maximal number of non-zero basis functions:     1936 in task    17
  | Maximal number of non-zero basis functions:     1949 in task    18
  | Maximal number of non-zero basis functions:     2020 in task    19
  | Maximal number of non-zero basis functions:     1941 in task    20
  | Maximal number of non-zero basis functions:     1936 in task    21
  | Maximal number of non-zero basis functions:     2014 in task    22
  | Maximal number of non-zero basis functions:     2026 in task    23
  | Maximal number of non-zero basis functions:     2005 in task    24
  | Maximal number of non-zero basis functions:     1990 in task    25
  | Maximal number of non-zero basis functions:     1932 in task    26
  | Maximal number of non-zero basis functions:     2069 in task    27
  | Maximal number of non-zero basis functions:     2018 in task    28
  | Maximal number of non-zero basis functions:     1939 in task    29
  | Maximal number of non-zero basis functions:     1967 in task    30
  | Maximal number of non-zero basis functions:     2003 in task    31
  | Maximal number of non-zero basis functions:     2025 in task    32
  | Maximal number of non-zero basis functions:     2065 in task    33
  | Maximal number of non-zero basis functions:     2065 in task    34
  | Maximal number of non-zero basis functions:     1947 in task    35
  | Maximal number of non-zero basis functions:     2071 in task    36
  | Maximal number of non-zero basis functions:     1933 in task    37
  | Maximal number of non-zero basis functions:     1946 in task    38
  | Maximal number of non-zero basis functions:     2071 in task    39
  | Maximal number of non-zero basis functions:     1955 in task    40
  | Maximal number of non-zero basis functions:     2003 in task    41
  | Maximal number of non-zero basis functions:     1984 in task    42
  | Maximal number of non-zero basis functions:     1929 in task    43
  | Maximal number of non-zero basis functions:     1936 in task    44
  | Maximal number of non-zero basis functions:     1984 in task    45
  | Maximal number of non-zero basis functions:     1998 in task    46
  | Maximal number of non-zero basis functions:     1921 in task    47
  | Maximal number of non-zero basis functions:     1933 in task    48
  | Maximal number of non-zero basis functions:     1993 in task    49
  | Maximal number of non-zero basis functions:     1984 in task    50
  | Maximal number of non-zero basis functions:     1966 in task    51
  | Maximal number of non-zero basis functions:     2000 in task    52
  | Maximal number of non-zero basis functions:     2086 in task    53
  | Maximal number of non-zero basis functions:     1990 in task    54
  | Maximal number of non-zero basis functions:     1990 in task    55
  | Maximal number of non-zero basis functions:     1980 in task    56
  | Maximal number of non-zero basis functions:     2089 in task    57
  | Maximal number of non-zero basis functions:     1990 in task    58
  | Maximal number of non-zero basis functions:     2009 in task    59
  | Maximal number of non-zero basis functions:     1946 in task    60
  | Maximal number of non-zero basis functions:     2005 in task    61
  | Maximal number of non-zero basis functions:     1994 in task    62
  | Maximal number of non-zero basis functions:     2089 in task    63
  | Maximal number of non-zero basis functions:     1941 in task    64
  | Maximal number of non-zero basis functions:     2005 in task    65
  | Maximal number of non-zero basis functions:     1973 in task    66
  | Maximal number of non-zero basis functions:     1936 in task    67
  | Maximal number of non-zero basis functions:     1977 in task    68
  | Maximal number of non-zero basis functions:     2058 in task    69
  | Maximal number of non-zero basis functions:     2005 in task    70
  | Maximal number of non-zero basis functions:     1961 in task    71
  | Maximal number of non-zero basis functions:     1989 in task    72
  | Maximal number of non-zero basis functions:     2014 in task    73
  | Maximal number of non-zero basis functions:     1998 in task    74
  | Maximal number of non-zero basis functions:     1938 in task    75
  | Maximal number of non-zero basis functions:     1983 in task    76
  | Maximal number of non-zero basis functions:     1932 in task    77
  | Maximal number of non-zero basis functions:     2090 in task    78
  | Maximal number of non-zero basis functions:     1976 in task    79
  Allocating       52.583 MB for KS_eigenvector_complex
  Integrating Hamiltonian matrix: batch-based integration.
  Time summed over all CPUs for integration: real work      102.262 s, elapsed      106.519 s
  Integrating overlap matrix.
  Time summed over all CPUs for integration: real work       80.366 s, elapsed       84.068 s
  Decreasing sparse matrix size:
   Tolerance:  9.999999824516700E-014
   Hamiltonian matrix
  | Array has  2396952 nonzero elements out of  2820433 elements
  | Sparsity factor is 0.150
   Overlap matrix
  | Array has  2194698 nonzero elements out of  2820433 elements
  | Sparsity factor is 0.222
  New size of hamiltonian matrix:     2397386

  Updating Kohn-Sham eigenvalues and eigenvectors using ELSI and the ELPA eigensolver.
  Overlap matrix is nonsingular
  | Lowest eigenvalue of overlap  :  0.33E-04
  | Highest eigenvalue of overlap :  0.10E+02
  Finished singularity check of overlap matrix
  | Time :     0.059 s
  Finished Cholesky decomposition
  | Time :     0.016 s
  Finished transformation to standard eigenproblem
  | Time :     0.025 s
  Starting LAPACK eigensolver
  Finished solving standard eigenproblem
  | Time :     0.068 s
  Finished back-transformation of eigenvectors
  | Time :     0.006 s

  Obtaining occupation numbers and chemical potential using ELSI.
  | Chemical potential (Fermi level):    -5.14301396eV
  Writing Kohn-Sham eigenvalues.
  K-point:       1 at    0.000000    0.000000    0.000000 (in units of recip. lattice)

  State    Occupation    Eigenvalue [Ha]    Eigenvalue [eV]
      1       2.00000       -1205.209630       -32795.42265
      2       2.00000       -1205.209629       -32795.42261
      3       2.00000       -1205.209612       -32795.42217
      4       2.00000       -1205.209611       -32795.42214
      5       2.00000        -745.359816       -20282.27255
      6       2.00000        -745.359815       -20282.27251
      7       2.00000        -179.448783        -4883.04982
      8       2.00000        -179.448781        -4883.04978
      9       2.00000        -179.448765        -4883.04934
     10       2.00000        -179.448764        -4883.04931
     11       2.00000        -161.010793        -4381.32659
     12       2.00000        -161.010791        -4381.32655
     13       2.00000        -161.010781        -4381.32626
     14       2.00000        -161.010781        -4381.32626
     15       2.00000        -161.010779        -4381.32622
     16       2.00000        -161.010779        -4381.32622
     17       2.00000        -161.010775        -4381.32611
     18       2.00000        -161.010774        -4381.32608
     19       2.00000        -161.010763        -4381.32578
     20       2.00000        -161.010763        -4381.32578
     21       2.00000        -161.010762        -4381.32575
     22       2.00000        -161.010762        -4381.32575
     23       2.00000        -103.303897        -2811.04206
     24       2.00000        -103.303895        -2811.04202
     25       2.00000         -92.324282        -2512.27154
     26       2.00000         -92.324280        -2512.27149
     27       2.00000         -92.324263        -2512.27101
     28       2.00000         -92.324263        -2512.27101
     29       2.00000         -92.324261        -2512.27097
     30       2.00000         -92.324261        -2512.27097
     31       2.00000         -35.529924         -966.81843
     32       2.00000         -35.529923         -966.81839
     33       2.00000         -35.529906         -966.81794
     34       2.00000         -35.529905         -966.81791
     35       2.00000         -29.584505         -805.03534
     36       2.00000         -29.584503         -805.03530
     37       2.00000         -29.584487         -805.03484
     38       2.00000         -29.584486         -805.03481
     39       2.00000         -29.584396         -805.03238
     40       2.00000         -29.584396         -805.03238
     41       2.00000         -29.584395         -805.03234
     42       2.00000         -29.584395         -805.03234
     43       2.00000         -29.584378         -805.03188
     44       2.00000         -29.584378         -805.03188
     45       2.00000         -29.584377         -805.03186
     46       2.00000         -29.584377         -805.03185
     47       2.00000         -20.615382         -560.97309
     48       2.00000         -20.615381         -560.97305
     49       2.00000         -20.615364         -560.97259
     50       2.00000         -20.615364         -560.97259
     51       2.00000         -20.615364         -560.97258
     52       2.00000         -20.615363         -560.97257
     53       2.00000         -20.615362         -560.97254
     54       2.00000         -20.615362         -560.97254
     55       2.00000         -20.615345         -560.97209
     56       2.00000         -20.615345         -560.97209
     57       2.00000         -20.615344         -560.97206
     58       2.00000         -20.615344         -560.97206
     59       2.00000         -20.615293         -560.97066
     60       2.00000         -20.615293         -560.97066
     61       2.00000         -20.615291         -560.97062
     62       2.00000         -20.615291         -560.97062
     63       2.00000         -20.615275         -560.97017
     64       2.00000         -20.615275         -560.97017
     65       2.00000         -20.615274         -560.97014
     66       2.00000         -20.615274         -560.97014
     67       2.00000         -17.533725         -477.11692
     68       2.00000         -17.533723         -477.11688
     69       2.00000         -13.953231         -379.68674
     70       2.00000         -13.953229         -379.68669
     71       2.00000         -13.953028         -379.68122
     72       2.00000         -13.953028         -379.68121
     73       2.00000         -13.953027         -379.68117
     74       2.00000         -13.953026         -379.68116
     75       2.00000          -8.136128         -221.39531
     76       2.00000          -8.136126         -221.39526
     77       2.00000          -8.136117         -221.39500
     78       2.00000          -8.136117         -221.39500
     79       2.00000          -8.136115         -221.39496
     80       2.00000          -8.136115         -221.39495
     81       2.00000          -8.135958         -221.39067
     82       2.00000          -8.135958         -221.39067
     83       2.00000          -8.135956         -221.39063
     84       2.00000          -8.135956         -221.39063
     85       2.00000          -6.055389         -164.77553
     86       2.00000          -6.055388         -164.77548
     87       2.00000          -6.055368         -164.77495
     88       2.00000          -6.055367         -164.77491
     89       2.00000          -4.218972         -114.80407
     90       2.00000          -4.218970         -114.80401
     91       2.00000          -4.218950         -114.80346
     92       2.00000          -4.218948         -114.80342
     93       2.00000          -4.218210         -114.78333
     94       2.00000          -4.218209         -114.78331
     95       2.00000          -4.218208         -114.78329
     96       2.00000          -4.218207         -114.78325
     97       2.00000          -4.218188         -114.78273
     98       2.00000          -4.218187         -114.78271
     99       2.00000          -4.218187         -114.78270
    100       2.00000          -4.218185         -114.78266
    101       2.00000          -2.387719          -64.97314
    102       2.00000          -2.387716          -64.97307
    103       2.00000          -1.550015          -42.17807
    104       2.00000          -1.550012          -42.17798
    105       2.00000          -1.549999          -42.17763
    106       2.00000          -1.549995          -42.17752
    107       2.00000          -1.549750          -42.17084
    108       2.00000          -1.549690          -42.16922
    109       2.00000          -1.549560          -42.16566
    110       2.00000          -1.549557          -42.16560
    111       2.00000          -1.549540          -42.16512
    112       2.00000          -1.549536          -42.16503
    113       2.00000          -1.549441          -42.16242
    114       2.00000          -1.549381          -42.16081
    115       2.00000          -1.548528          -42.13759
    116       2.00000          -1.548527          -42.13756
    117       2.00000          -1.548493          -42.13663
    118       2.00000          -1.548492          -42.13661
    119       2.00000          -1.548478          -42.13624
    120       2.00000          -1.548477          -42.13621
    121       2.00000          -1.548447          -42.13539
    122       2.00000          -1.548446          -42.13536
    123       2.00000          -1.446433          -39.35945
    124       2.00000          -1.446430          -39.35936
    125       2.00000          -1.438915          -39.15488
    126       2.00000          -1.438914          -39.15484
    127       2.00000          -1.438911          -39.15475
    128       2.00000          -1.438906          -39.15462
    129       2.00000          -0.689195          -18.75394
    130       2.00000          -0.677873          -18.44587
    131       2.00000          -0.655881          -17.84744
    132       2.00000          -0.637799          -17.35539
    133       2.00000          -0.424171          -11.54227
    134       2.00000          -0.374537          -10.19167
    135       2.00000          -0.323178           -8.79412
    136       2.00000          -0.260073           -7.07696
    137       2.00000          -0.260051           -7.07634
    138       2.00000          -0.259350           -7.05728
    139       2.00000          -0.259344           -7.05710
    140       2.00000          -0.232947           -6.33880
    141       2.00000          -0.227831           -6.19960
    142       2.00000          -0.227765           -6.19779
    143       2.00000          -0.226144           -6.15370
    144       2.00000          -0.226065           -6.15155
    145       2.00000          -0.218940           -5.95765
    146       1.99999          -0.190158           -5.17446
    147       0.00000          -0.089318           -2.43047
    148       0.00000          -0.089178           -2.42667
    149       0.00000          -0.084835           -2.30848
    150       0.00000          -0.084794           -2.30735
    151       0.00000          -0.080150           -2.18098
    152       0.00000          -0.080086           -2.17926
    153       0.00000          -0.070496           -1.91828
    154       0.00000          -0.070388           -1.91535
    155       0.00000           0.004625            0.12584
    156       0.00000           0.016179            0.44026
    157       0.00000           0.062865            1.71065
    158       0.00000           0.080218            2.18285
    159       0.00000           0.101588            2.76435
    160       0.00000           0.128298            3.49116
    161       0.00000           0.128342            3.49236
    162       0.00000           0.145472            3.95850
    163       0.00000           0.145476            3.95861
    164       0.00000           0.157010            4.27246
    165       0.00000           0.160383            4.36425
    166       0.00000           0.194375            5.28921
    167       0.00000           0.194584            5.29491
    168       0.00000           0.202405            5.50771
    169       0.00000           0.207292            5.64071
    170       0.00000           0.207502            5.64642
    171       0.00000           0.207966            5.65904
    172       0.00000           0.213438            5.80794
    173       0.00000           0.224426            6.10695
    174       0.00000           0.273192            7.43395
    175       0.00000           0.293407            7.98402
    176       0.00000           0.293462            7.98551
    177       0.00000           0.309984            8.43509
    178       0.00000           0.324926            8.84168
    179       0.00000           0.325419            8.85510

  What follows are estimated values for band gap, HOMO, LUMO, etc.
  | They are estimated on a discrete k-point grid and not necessarily exact.
  | For converged numbers, create a DOS and/or band structure plot on a denser k-grid.

  Highest occupied state (VBM) at     -5.17445803 eV (relative to internal zero)
  | Occupation number:      1.99999129
  | K-point:       1 at    0.000000    0.000000    0.000000 (in units of recip. lattice)

  Lowest unoccupied state (CBM) at    -4.48313659 eV (relative to internal zero)
  | Occupation number:      0.00000000
  | K-point:     800 at    0.166667    0.611111    0.000000 (in units of recip. lattice)

  ESTIMATED overall HOMO-LUMO gap:      0.69132144 eV between HOMO at k-point 1 and LUMO at k-point 800
  | This appears to be an indirect band gap.
  | Smallest direct gap :      1.16059761 eV for k_point 1461 at    0.166667    0.611111    0.000000 (in units of recip. lattice)
  The gap value is above 0.2 eV. Unless you are using a very sparse k-point grid,
  this system is most likely an insulator or a semiconductor.
  Calculating total energy contributions from superposition of free atom densities.

  Total energy components:
  | Sum of eigenvalues            :      -21915.03648327 Ha     -596338.48407788 eV
  | XC energy correction          :        -956.22456804 Ha      -26020.19438934 eV
  | XC potential correction       :        1247.49309986 Ha       33946.01440142 eV
  | Free-atom electrostatic energy:      -14127.99535897 Ha     -384442.31392704 eV
  | Hartree energy correction     :           0.00000000 Ha           0.00000000 eV
  | Entropy correction            :          -0.00000000 Ha          -0.00000000 eV
  | ---------------------------
  | Total energy                  :      -35751.76331042 Ha     -972854.97799283 eV
  | Total energy, T -> 0          :      -35751.76331042 Ha     -972854.97799283 eV  <-- do not rely on this value for anything but (periodic) metals
  | Electronic free energy        :      -35751.76331042 Ha     -972854.97799283 eV

  Derived energy quantities:
  | Kinetic energy                :       37336.42463874 Ha     1015975.80669996 eV
  | Electrostatic energy          :      -72131.96338112 Ha    -1962810.59030345 eV
  | Energy correction for multipole
  | error in Hartree potential    :           0.00000000 Ha           0.00000000 eV
  | Sum of eigenvalues per atom                           :      -99389.74734631 eV
  | Total energy (T->0) per atom                          :     -162142.49633214 eV  <-- do not rely on this value for anything but (periodic) metals
  | Electronic free energy per atom                       :     -162142.49633214 eV
  Initialize hartree_potential_storage
  Max. number of atoms included in rho_multipole:            6

  End scf initialization - timings             :  max(cpu_time)    wall_clock(cpu1)
  | Time for scf. initialization               :       11.912 s          11.901 s
  | Boundary condition initialization          :        0.232 s           0.230 s
  | Relaxation initialization                  :        0.004 s           0.000 s
[...]
  | Electrostatic energy          :      -72131.62550009 Ha    -1962801.39609295 eV
  | Energy correction for multipole
  | error in Hartree potential    :          -0.00220603 Ha          -0.06002915 eV
  | Sum of eigenvalues per atom                           :      -99413.41099901 eV
  | Total energy (T->0) per atom                          :     -162142.80134477 eV  <-- do not rely on this value for anything but (periodic) metals
  | Electronic free energy per atom                       :     -162142.80134477 eV

  atomic forces [eV/Ang]:
  -----------------------
  atom #    1
   Hellmann-Feynman              :  0.192999E-01 -0.263772E-02 -0.334909E-01
   Ionic forces                  :  0.000000E+00  0.000000E+00  0.000000E+00
   Multipole                     : -0.642662E-04  0.699074E-04 -0.102501E-02
   Pulay + GGA                   : -0.148363E-01  0.234968E-02  0.264291E-01
   Van der Waals                 : -0.261894E-03  0.144738E-03  0.692148E-03
   ----------------------------------------------------------------
   Total forces(   1)            :  0.413746E-02 -0.733877E-04 -0.739474E-02
  atom #    2
   Hellmann-Feynman              :  0.322992E-01  0.788737E-03  0.182809E-01
   Ionic forces                  :  0.000000E+00  0.000000E+00  0.000000E+00
   Multipole                     : -0.261115E-03 -0.583368E-04  0.113092E-02
   Pulay + GGA                   : -0.251024E-01 -0.919242E-03 -0.140832E-01
   Van der Waals                 :  0.259273E-03 -0.143885E-03 -0.720145E-03
   ----------------------------------------------------------------
   Total forces(   2)            :  0.719502E-02 -0.332727E-03  0.460841E-02
  atom #    3
   Hellmann-Feynman              :  0.263089E-02 -0.165126E-02  0.949108E+00
   Ionic forces                  :  0.000000E+00  0.000000E+00  0.000000E+00
   Multipole                     :  0.248673E-04  0.380609E-04  0.338633E-01
   Pulay + GGA                   : -0.558755E-02  0.782097E-03 -0.105818E+01
   Van der Waals                 : -0.151612E-03  0.872497E-04  0.787721E-01
   ----------------------------------------------------------------
   Total forces(   3)            : -0.308340E-02 -0.743849E-03  0.356377E-02
  atom #    4
   Hellmann-Feynman              : -0.912561E-03  0.774668E-03  0.962765E+00
   Ionic forces                  :  0.000000E+00  0.000000E+00  0.000000E+00
   Multipole                     :  0.342303E-04 -0.301312E-04  0.335896E-01
   Pulay + GGA                   : -0.238960E-02 -0.101464E-02 -0.107685E+01
   Van der Waals                 :  0.149678E-03 -0.857463E-04  0.801323E-01
   ----------------------------------------------------------------
   Total forces(   4)            : -0.311825E-02 -0.355851E-03 -0.360938E-03
  atom #    5
   Hellmann-Feynman              : -0.123548E-02  0.156704E-02 -0.950634E+00
   Ionic forces                  :  0.000000E+00  0.000000E+00  0.000000E+00
   Multipole                     :  0.284217E-04 -0.401936E-04 -0.338573E-01
   Pulay + GGA                   : -0.947477E-03 -0.470713E-03  0.105893E+01
   Van der Waals                 :  0.151924E-03 -0.876688E-04 -0.787588E-01
   ----------------------------------------------------------------
   Total forces(   5)            : -0.200261E-02  0.968462E-03 -0.432341E-02
  atom #    6
   Hellmann-Feynman              :  0.281486E-02 -0.844256E-03 -0.961566E+00
   Ionic forces                  :  0.000000E+00  0.000000E+00  0.000000E+00
   Multipole                     :  0.246188E-04  0.282340E-04 -0.335709E-01
   Pulay + GGA                   : -0.577412E-02  0.126069E-02  0.107912E+01
   Van der Waals                 : -0.147369E-03  0.853119E-04 -0.801176E-01
   ----------------------------------------------------------------
   Total forces(   6)            : -0.308202E-02  0.529982E-03  0.386234E-02


  Analytical stress tensor components [eV]         xx                  yy                  zz                  xy                  xz                  yz
  -----------------------------------------------------------------------------------------------------------------------------------------------------------
    Nuclear Hellmann-Feynman      :    -0.6767791777E+02   -0.6767440385E+02   -0.1414392541E+03    0.7914289322E-02    0.4650199757E-02    0.1146103586E-01
    Multipole Hellmann-Feynman    :    -0.2269775706E+03   -0.2269795362E+03   -0.3206222590E+03    0.1072349850E-01    0.7560552313E-02    0.1890838795E-01
    On-site Multipole corrections :    -0.5545155358E+01   -0.5545710844E+01   -0.5545490614E+01    0.2342626086E-06    0.2323275767E-08   -0.2194149894E-06
    Strain deriv. of the orbitals :     0.2976532841E+03    0.2976523096E+03    0.4658866278E+03   -0.1794812351E-01   -0.1056070849E-01   -0.2605056154E-01
    vdW correction   :     0.2572631667E+01    0.2538100612E+01    0.1882082210E+01   -0.3003982423E-01    0.8463365914E-06   -0.1436843743E-04
  -----------------------------------------------------------------------------------------------------------------------------------------------------------
  Sum of all contributions        :     0.2527198810E-01   -0.9240718542E-02    0.1617062916E+00   -0.2934992566E-01    0.1650892243E-02    0.4304274415E-02

  +-------------------------------------------------------------------+
  |              Analytical stress tensor - Symmetrized               |
  |                  Cartesian components [eV/A**3]                   |
  +-------------------------------------------------------------------+
  |                x                y                z                |
  |                                                                   |
  |  x         0.00017165      -0.00019935       0.00001121           |
  |  y        -0.00019935      -0.00006276       0.00002923           |
  |  z         0.00001121       0.00002923       0.00109832           |
  |                                                                   |
  |  Pressure:      -0.00040240   [eV/A**3]                           |
  |                                                                   |
  +-------------------------------------------------------------------+

 * Warning: Stress tensor is anisotropic. Be aware that pressure is an isotropic quantity.

  Timings for VdW correction (Tkatchenko-Scheffler 2009 or later):
  | CPU time:       10.904 s, Wall clock time:       10.893 s.
  Removing unitary transformations (pure translations, rotations) from forces on atoms.
  Atomic forces before filtering:
  | Net force on center of mass :   0.462032E-04 -0.737086E-05 -0.445709E-04 eV/A
  Removing unitary transformations (rotations) from forces on lattice.
  Lattice forces before filtering:
  | Net torque relative to origin:  -0.239466E-19 -0.512602E-20  0.789830E-13 eV
  Atomic forces after filtering:
  | Net force on center of mass :   0.000000E+00 -0.261337E-18 -0.209070E-17 eV/A
  Lattice forces after filtering:
  | Net torque relative to origin:  -0.239466E-19 -0.512602E-20  0.789830E-13 eV

  Energy and forces in a compact form:
  | Total energy uncorrected      :         -0.972856808068607E+06 eV
  | Total energy corrected        :         -0.972856808068607E+06 eV  <-- do not rely on this value for anything but (periodic) metals
  | Electronic free energy        :         -0.972856808068607E+06 eV
  Total atomic forces (unitary forces cleaned) [eV/Ang]:
  |   1          0.412975860740241E-02         -0.721592147222638E-04         -0.738730868890706E-02
  |   2          0.718732060919806E-02         -0.331498156914457E-03          0.461583607625415E-02
  |   3         -0.309110189804223E-02         -0.742620839972205E-03          0.357119405468100E-02
  |   4         -0.312595316098208E-02         -0.354622500885596E-03         -0.353509412464266E-03
  |   5         -0.201030845022024E-02          0.969690492124757E-03         -0.431597933635551E-02
  |   6         -0.308971570735592E-02          0.531210220369764E-03          0.386976730679169E-02

  ------------------------------------ 
  Start decomposition of the XC Energy 
  ------------------------------------ 
  X and C from original XC functional choice 
  Hartree-Fock Energy :          0.000000000 Ha              0.000000000 eV
  X Energy            :       -940.258720120 Ha         -25585.741562668 eV
  C Energy            :        -15.727850084 Ha           -427.976576004 eV
  Total XC Energy     :       -955.986570205 Ha         -26013.718138672 eV
  ------------------------------------ 
  LDA X and C from self-consistent density 
  X Energy LDA        :       -896.692590080 Ha         -24400.246846955 eV
  C Energy LDA        :        -27.830838603 Ha           -757.315650183 eV
  ------------------------------------ 
  End decomposition of the XC Energy 
  ------------------------------------ 

------------------------------------------------------------
  Relaxation / MD: End force evaluation.       :  max(cpu_time)    wall_clock(cpu1)
  | Time for this force evaluation             :      297.336 s         297.510 s

------------------------------------------------------------
  Geometry optimization: Attempting to predict improved coordinates.

  +-------------------------------------------------------------------+
  | Generalized derivatives on lattice vectors [eV/A]                 |
  +-------------------------------------------------------------------+
  |lattice_vector       0.00237977      -0.00991286       0.00118204  |
  |lattice_vector      -0.00968590      -0.00304957       0.00142047  |
  |lattice_vector       0.00011889       0.00030996       0.01164494  |
  +-------------------------------------------------------------------+
  | Forces on lattice vectors cleaned from atomic contributions [eV/A]|
  +-------------------------------------------------------------------+
  |lattice_vector      -0.00101051       0.01010168      -0.00121238  |
  |lattice_vector       0.00831834       0.00286072      -0.00138704  |
  |lattice_vector       0.00053209      -0.00024018      -0.00608808  |
  +-------------------------------------------------------------------+
  | Projected forces for shape relaxation  [eV/A]                     |
  +-------------------------------------------------------------------+
  |lattice_vector      -0.00101051       0.00000000      -0.00000000  |
  |lattice_vector       0.00084086      -0.00145641       0.00000000  |
  |lattice_vector       0.00000000       0.00000000      -0.00608808  |
  +-------------------------------------------------------------------+
  Removing unitary transformations (pure translations, rotations) from forces on atoms.
  Atomic forces before filtering:
  | Net force on center of mass :   0.000000E+00 -0.261337E-18 -0.209070E-17 eV/A
  Removing unitary transformations (rotations) from forces on lattice.
  Lattice forces before filtering:
  | Net torque relative to origin:  -0.511789E-35 -0.479802E-36  0.368783E-18 eV
  Atomic forces after filtering:
  | Net force on center of mass :   0.000000E+00 -0.871124E-19  0.139380E-17 eV/A
  Lattice forces after filtering:
  | Net torque relative to origin:  -0.511789E-35 -0.479802E-36  0.368783E-18 eV
  || Forces on lattice vectors || =   0.608808E-02 eV/A.
  Net remaining forces (excluding translations, rotations) in present geometry:
  Maximum force component is  0.738731E-02 eV/A.
  Present geometry is converged.

------------------------------------------------------------
  Final atomic structure:
                         x [A]             y [A]             z [A]
  lattice_vector         3.49899465       -0.00000000        0.00000000
  lattice_vector        -1.74946941        3.03016990       -0.00000000
  lattice_vector        -0.00000000       -0.00000000       13.88640099

            atom         0.00079041        2.01985204        3.47764062  Mo
            atom         1.74818489        1.01033760       10.40885104  Mo
            atom        -0.00083916        2.02049529       12.23528722  Te
            atom         1.75072286        1.00986901        5.30363906  Te
            atom         1.75054774        1.00966067        1.65122430  Te
            atom        -0.00083101        2.02029510        8.58256073  Te

  Fractional coordinates:
                         L1                L2                L3
       atom_frac         0.33351081        0.66658046        0.25043499  Mo
       atom_frac         0.66633528        0.33342606        0.74957155  Mo
       atom_frac         0.33315122        0.66679274        0.88109851  Te
       atom_frac         0.66698330        0.33327142        0.38193043  Te
       atom_frac         0.66689888        0.33320266        0.11890945  Te
       atom_frac         0.33312052        0.66672667        0.61805508  Te
------------------------------------------------------------

------------------------------------------------------------------------------
  Final output of selected total energy values:

  The following output summarizes some interesting total energy values
  at the end of a run (AFTER all relaxation, molecular dynamics, etc.).

  | Total energy of the DFT / Hartree-Fock s.c.f. calculation      :        -972856.808068607 eV
  | Final zero-broadening corrected energy (caution - metals only) :        -972856.808068607 eV
  | For reference only, the value of 1 Hartree used in FHI-aims is :             27.211384500 eV

  Before relying on these values, please be sure to understand exactly which
  total energy value is referred to by a given number. Different objects may
  all carry the same name 'total energy'. Definitions:

  Total energy of the DFT / Hartree-Fock s.c.f. calculation:
  | Note that this energy does not include ANY quantities calculated after the
  | s.c.f. cycle, in particular not ANY RPA, MP2, etc. many-body perturbation terms.

  Final zero-broadening corrected energy:
  | For metallic systems only, a broadening of the occupation numbers at the Fermi
  | level can be extrapolated back to zero broadening by an electron-gas inspired
  | formula. For all systems that are not real metals, this value can be
  | meaningless and should be avoided.

------------------------------------------------------------------------------
  Methods described in the following list of references were used in this FHI-aims run.
  If you publish the results, please make sure to cite these reference if they apply.
  FHI-aims is an academic code, and for our developers (often, Ph.D. students
  and postdocs), scientific credit in the community is essential.
  Thank you for helping us!

  For any use of FHI-aims, please cite:

    Volker Blum, Ralf Gehrke, Felix Hanke, Paula Havu, Ville Havu,
    Xinguo Ren, Karsten Reuter, and Matthias Scheffler
    'Ab initio molecular simulations with numeric atom-centered orbitals'
    Computer Physics Communications 180, 2175-2196 (2009)
    http://dx.doi.org/10.1016/j.cpc.2009.06.022


  For the analytical stress tensor used in your run, please cite:

    Franz Knuth, Christian Carbogno, Viktor Atalla, Volker Blum, Matthias Scheffler
    'All-electron formalism for total energy strain derivatives and
    stress tensor components for numeric atom-centered orbitals'
    Computer Physics Communications 190, 33-50 (2015).
    http://dx.doi.org/10.1016/j.cpc.2015.01.003


  The scalable eigensolver library ELPA was used in your run.
  ELPA is essential especially for large systems on hundreds or thousands of CPUs.
  For ELPA, please cite:

    Andreas Marek, Volker Blum, Rainer Johanni, Ville Havu, Bruno Lang,
    Thomas Auckenthaler, Alexander Heinecke, Hans-Joachim Bungartz, and Hermann Lederer,
    'The ELPA Library - Scalable Parallel Eigenvalue Solutions
    for Electronic Structure Theory and Computational Science'
    The Journal of Physics: Condensed Matter 26, 213201 (2014).
    http://dx.doi.org/10.1088/0953-8984/26/21/213201


  The ELSI infrastructure was used in your run to solve the Kohn-Sham electronic structure.
  Please check out http://elsi-interchange.org to learn more.
  If scalability is important for your project, please acknowledge ELSI by citing:

    V. W-z. Yu, F. Corsetti, A. Garcia, W. P. Huhn, M. Jacquelin, W. Jia,
    B. Lange, L. Lin, J. Lu, W. Mi, A. Seifitokaldani, A. Vazquez-Mayagoitia,
    C. Yang, H. Yang, and V. Blum
    'ELSI: A unified software interface for Kohn-Sham electronic structure solvers'
    Computer Physics Communications 222, 267-285 (2018).
    http://dx.doi.org/10.1016/j.cpc.2017.09.007


  For the real-space grid partitioning and parallelization used in this calculation, please cite:

    Ville Havu, Volker Blum, Paula Havu, and Matthias Scheffler,
    'Efficient O(N) integration for all-electron electronic structure calculation'
    'using numerically tabulated basis functions'
    Journal of Computational Physics 228, 8367-8379 (2009).
    http://dx.doi.org/10.1016/j.jcp.2009.08.008

  Of course, there are many other important community references, e.g., those cited in the
  above references. Our list is limited to references that describe implementations in the
  FHI-aims code. The reason is purely practical (length of this list) - please credit others as well.

------------------------------------------------------------
          Leaving FHI-aims.
          Date     :  20191129, Time     :  120348.306

          Computational steps:
          | Number of self-consistency cycles          :          214
          | Number of SCF (re)initializations          :           12
          | Number of relaxation steps                 :           11

          Detailed time accounting                     :  max(cpu_time)    wall_clock(cpu1)
          | Total time                                 :     3660.680 s        3657.980 s
          | Preparation time                           :        0.560 s           0.549 s
          | Boundary condition initalization           :        2.228 s           2.139 s
          | Grid partitioning                          :        2.756 s           2.729 s
          | Preloading free-atom quantities on grid    :        1.480 s           1.467 s
          | Free-atom superposition energy             :        0.220 s           0.206 s
          | Total time for integrations                :      307.276 s         306.589 s
          | Total time for solution of K.-S. equations :     1496.672 s        1496.840 s
          | Total time for EV reorthonormalization     :       16.084 s          15.581 s
          | Total time for density & force components  :     1605.292 s        1603.639 s
          | Total time for mixing & preconditioning    :       21.448 s          21.205 s
          | Total time for Hartree multipole update    :        0.872 s           0.529 s
          | Total time for Hartree multipole sum       :       70.012 s          69.446 s
          | Total time for total energy evaluation     :        3.440 s           3.125 s
          | Total time for scaled ZORA corrections     :        0.000 s           0.000 s
          | Total time for vdW correction              :      130.924 s         130.822 s

          Partial memory accounting:
          | Residual value for overall tracked memory usage across tasks :           0.000 MB (should be 0.000 MB)
          | Peak values for overall tracked memory usage (after allocating wave_pulay):
          |   Minimum:      220.907 MB (on task 78)
          |   Maximum:      232.577 MB (on task 33)
          |   Average:      226.948 MB
          | Largest tracked array allocation (+KS_eigenvector_complex):
          |   Minimum:       52.583 MB (on task  1)
          |   Maximum:       54.044 MB (on task  2)
          |   Average:       53.313 MB
          Note:  These values currently only include a subset of arrays which are explicitly tracked.
          The "true" memory usage will be greater.

          Have a nice day.
------------------------------------------------------------
