  MPI-parallelism will be employed.
------------------------------------------------------------
          Invoking FHI-aims ...
          Version 171221_1
          Compiled on 2018/11/06 at 11:18:49 on host headnode.

          When using FHI-aims, please cite the following reference:

          Volker Blum, Ralf Gehrke, Felix Hanke, Paula Havu,
          Ville Havu, Xinguo Ren, Karsten Reuter, and Matthias Scheffler,
          'Ab Initio Molecular Simulations with Numeric Atom-Centered Orbitals',
          Computer Physics Communications 180, 2175-2196 (2009)

          For any questions about FHI-aims, please visit the aimsclub website
          with its forums and wiki. Contributions to both the forums and the
          wiki are warmly encouraged - they are for you, and everyone is welcome there.

------------------------------------------------------------



  Date     :  20191127, Time     :  232736.108
  Time zero on CPU 1             :   0.316000000000000E+00  s.
  Internal wall clock time zero  :           344129256.108  s.

  FHI-aims created a unique identifier for this run for later identification
  aims_uuid : E2A4B1AC-1A3B-4BF1-A469-61838C51F725

  Using       80 parallel tasks.
  Task        0 on host t017 reporting.
  Task        1 on host t017 reporting.
  Task        2 on host t017 reporting.
  Task        3 on host t017 reporting.
  Task        4 on host t017 reporting.
  Task        5 on host t017 reporting.
  Task        6 on host t017 reporting.
  Task        7 on host t017 reporting.
  Task        8 on host t017 reporting.
  Task        9 on host t017 reporting.
  Task       10 on host t017 reporting.
  Task       11 on host t017 reporting.
  Task       12 on host t017 reporting.
  Task       13 on host t017 reporting.
  Task       14 on host t017 reporting.
  Task       15 on host t017 reporting.
  Task       16 on host t017 reporting.
  Task       17 on host t017 reporting.
  Task       18 on host t017 reporting.
  Task       19 on host t017 reporting.
  Task       20 on host t011 reporting.
  Task       21 on host t011 reporting.
  Task       22 on host t011 reporting.
  Task       23 on host t011 reporting.
  Task       24 on host t011 reporting.
  Task       25 on host t011 reporting.
  Task       26 on host t011 reporting.
  Task       27 on host t011 reporting.
  Task       28 on host t011 reporting.
  Task       29 on host t011 reporting.
  Task       30 on host t011 reporting.
  Task       31 on host t011 reporting.
  Task       32 on host t011 reporting.
  Task       33 on host t011 reporting.
  Task       34 on host t011 reporting.
  Task       35 on host t011 reporting.
  Task       36 on host t011 reporting.
  Task       37 on host t011 reporting.
  Task       38 on host t011 reporting.
  Task       39 on host t011 reporting.
  Task       40 on host t010 reporting.
  Task       41 on host t010 reporting.
  Task       42 on host t010 reporting.
  Task       43 on host t010 reporting.
  Task       44 on host t010 reporting.
  Task       45 on host t010 reporting.
  Task       46 on host t010 reporting.
  Task       47 on host t010 reporting.
  Task       48 on host t010 reporting.
  Task       49 on host t010 reporting.
  Task       50 on host t010 reporting.
  Task       51 on host t010 reporting.
  Task       52 on host t010 reporting.
  Task       53 on host t010 reporting.
  Task       54 on host t010 reporting.
  Task       55 on host t010 reporting.
  Task       56 on host t010 reporting.
  Task       57 on host t010 reporting.
  Task       58 on host t010 reporting.
  Task       59 on host t010 reporting.
  Task       60 on host t009 reporting.
  Task       61 on host t009 reporting.
  Task       62 on host t009 reporting.
  Task       63 on host t009 reporting.
  Task       64 on host t009 reporting.
  Task       65 on host t009 reporting.
  Task       66 on host t009 reporting.
  Task       67 on host t009 reporting.
  Task       68 on host t009 reporting.
  Task       69 on host t009 reporting.
  Task       70 on host t009 reporting.
  Task       71 on host t009 reporting.
  Task       72 on host t009 reporting.
  Task       73 on host t009 reporting.
  Task       74 on host t009 reporting.
  Task       75 on host t009 reporting.
  Task       76 on host t009 reporting.
  Task       77 on host t009 reporting.
  Task       78 on host t009 reporting.
  Task       79 on host t009 reporting.

  Performing system and environment tests:
  | Environment variable OMP_NUM_THREADS correctly set to 1.
  | Stacksize not measured: no C compiler
  | Checking for scalapack...
  | Testing pdtran()...
  | All pdtran() tests passed.

  Obtaining array dimensions for all initial allocations:
  
  -----------------------------------------------------------------------
  Parsing control.in (first pass over file, find array dimensions only).
  The contents of control.in will be repeated verbatim below
  unless switched off by setting 'verbatim_writeout .false.' .
  in the first line of control.in .
  -----------------------------------------------------------------------
  
  #===============================================================================
  # FHI-aims file: ./control.in
  # Created using the Atomic Simulation Environment (ASE)
  # Wed Nov 27 20:14:32 2019
  #
  # List of parameters used to initialize the calculator:
  #     adjust_scf : once 2
  #     k_grid : [18, 18, 18]
  #     species_dir : /chemsoft/FHI-aims/stable/species_defaults/tight
  #     spin : none
  #     relativistic : ('atomic_zora', 'scalar')
  #     xc : pbe
  #===============================================================================
  adjust_scf                         once 2
  ### geometry optimisation section
  relax_geometry    bfgs    1E-2
  relax_unit_cell       fixed_angles
  k_grid                             18 18 18
  spin                               none
  relativistic                       atomic_zora scalar
  xc                                 pbe
  many_body_dispersion
  #===============================================================================
  
  ################################################################################
  #
  #  FHI-aims code project
  # Volker Blum, Fritz Haber Institute Berlin, 2009
  #
  #  Suggested "tight" defaults for Pd atom (to be pasted into control.in file)
  #
  ################################################################################
    species        Pd
  #     global species definitions
      nucleus             46
      mass                106.42
  #
      l_hartree           6
  #
      cut_pot             4.0  2.0  1.0
      basis_dep_cutoff    1e-4
  #
      radial_base         62 7.0
      radial_multiplier   2
      angular_grids specified
        division   0.3627   50
        division   0.7349  110
        division   1.0624  194
        division   1.2496  302
        division   1.6740  434
  #      division   2.0126  590
  #      division   2.0830  770
  #      division   2.7936 1202
  #       outer_grid  974
        outer_grid  434
  ################################################################################
  #
  #  Definition of "minimal" basis
  #
  ################################################################################
  #     valence basis states
      valence      5  s   1.
      valence      4  p   6.
      valence      4  d   9.
  #     ion occupancy
      ion_occ     5  s   0.
      ion_occ     4  p   6.
      ion_occ     4  d   8.
  ################################################################################
  #
  #  Suggested additional basis functions. For production calculations,
  #  uncomment them one after another (the most important basis functions are
  #  listed first).
  #
  #  Constructed for dimers: 2.0 A, 2.275 A, 2.75 A, 3.75 A
  #
  ################################################################################
  #  "First tier" - max. impr. -120.76  meV, min. impr. -5.71 meV
       ionic 5 p auto
       hydro 4 f 8
       hydro 5 g 10
       hydro 3 s 2.6
       hydro 3 d 2.5
  #  "Second tier" - max. impr. -5.00  meV, min. impr. -0.62 meV
       hydro 5 f 17.2
       hydro 6 h 14
       hydro 4 d 4
       hydro 5 f 7.6
       hydro 3 p 3.3
       hydro 4 s 9.4
  #  "Third tier" - max. impr. -0.54  meV, min. impr. -0.14 meV
  #     hydro 4 f 20
  #     hydro 5 g 12.8
  #     hydro 5 d 9.8
  #     hydro 6 h 15.2
  #     hydro 5 s 10
  #     hydro 6 p 9.8
  #  "Fourth tier" - max. impr. -0.15  meV, min. impr. -0.05 meV
  #     hydro 5 f 9.2
  #     hydro 2 s 5.6
  #     hydro 5 f 43.2
  #     hydro 5 d 13.2
  #     hydro 5 g 14
  #     hydro 4 p 4.7
  ################################################################################
  #
  #  FHI-aims code project
  # Volker Blum, Fritz Haber Institute Berlin, 2010
  #
  #  Suggested "tight" defaults for P atom (to be pasted into control.in file)
  #
  #  Revised Jan 04, 2011, following tests (SiC) done by Lydia Nemec:
  #     d function of tier 2 now enabled by default.
  #
  ################################################################################
    species        P
  #     global species definitions
      nucleus             15
      mass                30.973762
  #
      l_hartree           6
  #
      cut_pot             4.0          2.0  1.0
      basis_dep_cutoff    1e-4
  #
      radial_base         43 7.0
      radial_multiplier   2
      angular_grids       specified
        division   0.2995   50
        division   0.5998  110
        division   0.9240  194
        division   1.0921  302
        division   1.2863  434
  #      division   1.3165  590
  #      division   1.4113  770
  #      division   1.5128  974
  #      division   2.4980 1202
        outer_grid  434
  ################################################################################
  #
  #  Definition of "minimal" basis
  #
  ################################################################################
  #     valence basis states
      valence      3  s   2.
      valence      3  p   3.
  #     ion occupancy
      ion_occ      3  s   1.
      ion_occ      3  p   2.
  ################################################################################
  #
  #  Suggested additional basis functions. For production calculations,
  #  uncomment them one after another (the most important basis functions are
  #  listed first).
  #
  #  Constructed for dimers: 1.625 A, 1.875 A, 2.5 A, 3.25 A, 4.0 A
  #
  ################################################################################
  #  "First tier" - improvements: -726.20 meV to -35.91 meV
       ionic 3 d auto
       ionic 3 p auto
       hydro 4 f 6.2
       hydro 5 g 8.6
       ionic 3 s auto
  #  "Second tier" - improvements: -16.02 meV to -1.71 meV
       hydro 4 d 6.2
       hydro 4 p 9.2
       hydro 5 f 9.8
       hydro 1 s 0.7
       hydro 5 g 13.2
  #  "Third tier" - improvements: -1.82 meV to -0.20 meV
  #     hydro 3 p 2.5
  #     hydro 4 d 6.4
  #     hydro 5 f 11.2
  #     hydro 2 s 1.5
  #  "Fourth tier" - improvements: -0.91 meV to -0.17 meV
  #     hydro 3 d 16.8
  #     hydro 5 g 18
  #     hydro 4 p 4.5
  #     hydro 3 s 2.1
  #  Further basis functions that fell out of the optimization - < -0.09 meV
  #     hydro 4 p 10.4
  #     hydro 4 d 17.6
  #     hydro 4 s 11.2
  ################################################################################
  #
  # For methods that use the localized form of the "resolution of identity" for
  # the two-electron Coulomb operator (RI_method LVL), particularly Hartree-Fock and
  # hybrid density functional calculations, the highest accuracy can be obtained by
  # uncommenting the line beginning with "for_aux"  below, thus adding an extra g radial
  # function to the construction of the product basis set for the expansion.
  # See Ref. New J. Phys. 17, 093020 (2015) for more information, particularly Figs. 1 and 6.
  #
  ################################################################################
  #
  # for_aux hydro 5 g 6.0
  ################################################################################
  #
  #  FHI-aims code project
  # Volker Blum, Fritz Haber Institute Berlin, 2009
  #
  #  Suggested "tight" defaults for S atom (to be pasted into control.in file)
  #
  #  Revised Jan 04, 2011, following tests (SiC) done by Lydia Nemec:
  #     d and g functions of tier 2 now enabled by default.
  #
  ################################################################################
    species        S
  #     global species definitions
      nucleus             16
      mass                32.065
  #
      l_hartree           6
  #
      cut_pot             4.0          2.0  1.0
      basis_dep_cutoff    1e-4
  #
      radial_base         44 7.0
      radial_multiplier   2
      angular_grids       specified
        division   0.4665  110
        division   0.5810  194
        division   0.7139  302
        division   0.8274  434
  #      division   0.9105  590
  #      division   1.0975  770
  #      division   1.2028  974
  #      outer_grid  974
        outer_grid  434
  ################################################################################
  #
  #  Definition of "minimal" basis
  #
  ################################################################################
  #     valence basis states
      valence      3  s   2.
      valence      3  p   4.
  #     ion occupancy
      ion_occ      3  s   1.
      ion_occ      3  p   3.
  ################################################################################
  #
  #  Suggested additional basis functions. For production calculations,
  #  uncomment them one after another (the most important basis functions are
  #  listed first).
  #
  #  Constructed for dimers: 1.6 A, 1.9 A, 2.5 A, 3.25 A, 4.0 A
  #
  ################################################################################
  #  "First tier" - improvements: -652.81 meV to -45.53 meV
       ionic 3 d auto
       hydro 2 p 1.8
       hydro 4 f 7
       ionic 3 s auto
  #  "Second tier" - improvements: -30.20 meV to -1.74 meV
       hydro 4 d 6.2
       hydro 5 g 10.8
       hydro 4 p 4.9
       hydro 5 f 10
       hydro 1 s 0.8
  #  "Third tier" - improvements: -1.04 meV to -0.20 meV
  #     hydro 3 d 3.9
  #     hydro 3 d 2.7
  #     hydro 5 g 12
  #     hydro 4 p 10.4
  #     hydro 5 f 12.4
  #     hydro 2 s 1.9
  #  "Fourth tier" - improvements: -0.35 meV to -0.06 meV
  #     hydro 4 d 10.4
  #     hydro 4 p 7.2
  #     hydro 4 d 10
  #     hydro 5 g 19.2
  #     hydro 4 s 12
  #
  ################################################################################
  #
  # For methods that use the localized form of the "resolution of identity" for
  # the two-electron Coulomb operator (RI_method LVL), particularly Hartree-Fock and
  # hybrid density functional calculations, the highest accuracy can be obtained by
  # uncommenting the line beginning with "for_aux"  below, thus adding an extra g radial
  # function to the construction of the product basis set for the expansion.
  # See Ref. New J. Phys. 17, 093020 (2015) for more information, particularly Figs. 1 and 6.
  #
  ################################################################################
  #
  # for_aux hydro 5 g 6.0
  
  -----------------------------------------------------------------------
  Completed first pass over input file control.in .
  -----------------------------------------------------------------------
  
  
  -----------------------------------------------------------------------
  Parsing geometry.in (first pass over file, find array dimensions only).
  The contents of geometry.in will be repeated verbatim below
  unless switched off by setting 'verbatim_writeout .false.' .
  in the first line of geometry.in .
  -----------------------------------------------------------------------
  
  #=======================================================
  # FHI-aims file: ./geometry.in
  # Created using the Atomic Simulation Environment (ASE)
  # Wed Nov 27 20:14:32 2019
  #=======================================================
  lattice_vector 13.8958999999999993 0.0000000000000000 0.0000000000000000
  lattice_vector 0.0000000000000000 5.8311599999999997 0.0000000000000000
  lattice_vector 0.0000000000000000 0.0000000000000000 5.8655400000000002
  atom 1.5318840199999999 1.4983748699999999 0.9039970200000000 Pd
  atom 5.4160659799999999 1.4172051299999999 3.8367670199999999 Pd
  atom 8.4798340200000002 1.4172051299999999 4.9615429799999999 Pd
  atom 12.3640159799999996 1.4983748699999999 2.0287729799999998 Pd
  atom 12.3640159799999996 4.3327851300000004 4.9615429799999999 Pd
  atom 8.4798340200000002 4.4139548700000004 2.0287729799999998 Pd
  atom 5.4160659799999999 4.4139548700000004 0.9039970200000000 Pd
  atom 1.5318840199999999 4.3327851300000004 3.8367670199999999 Pd
  atom 5.8696281600000004 0.7228889100000000 1.6664585700000001 P
  atom 1.0783218400000001 2.1926910899999998 4.5992285700000002 P
  atom 12.8175781600000001 2.1926910899999998 4.1990814299999997 P
  atom 8.0262718399999997 0.7228889100000000 1.2663114300000000 P
  atom 8.0262718399999997 5.1082710899999997 4.1990814299999997 P
  atom 12.8175781600000001 3.6384689099999998 1.2663114300000000 P
  atom 1.0783218400000001 3.6384689099999998 1.6664585700000001 P
  atom 5.8696281600000004 5.1082710899999997 4.5992285700000002 P
  atom 4.7721299799999999 2.1177606899999999 0.2358533600000000 S
  atom 2.1758200200000002 0.7978193099999999 3.1686233600000002 S
  atom 11.7200799799999995 0.7978193099999999 5.6296866400000001 S
  atom 9.1237700200000003 2.1177606899999999 2.6969166400000000 S
  atom 9.1237700200000003 3.7133993099999998 5.6296866400000001 S
  atom 11.7200799799999995 5.0333406900000002 2.6969166400000000 S
  atom 2.1758200200000002 5.0333406900000002 0.2358533600000000 S
  atom 4.7721299799999999 3.7133993099999998 3.1686233600000002 S
  
  -----------------------------------------------------------------------
  Completed first pass over input file geometry.in .
  -----------------------------------------------------------------------
  

  Basic array size parameters:
  | Number of species                 :        3
  | Number of atoms                   :       24
  | Number of lattice vectors         :        3
  | Max. basis fn. angular momentum   :        5
  | Max. atomic/ionic basis occupied n:        5
  | Max. number of basis fn. types    :        3
  | Max. radial fns per species/type  :       10
  | Max. logarithmic grid size        :     1444
  | Max. radial integration grid size :      125
  | Max. angular integration grid size:      434
  | Max. angular grid division number :        8
  | Radial grid for Hartree potential :     1444
  | Number of spin channels           :        1

------------------------------------------------------------
          Reading file control.in.
------------------------------------------------------------
  S.C.F. convergence parameters will be adjusted in iteration number     2 of the first full s.c.f. cycle only.
  Geometry relaxation: Modified BFGS - TRM (trust radius method, i.e., trusted quadratic extrapolation).
  Convergence accuracy for geometry relaxation: Maximum force <   0.100000E-01 eV/A.
  Found k-point grid:        18        18        18
  Spin treatment: No spin polarisation.
  Scalar relativistic treatment of kinetic energy: on-site free-atom approximation to ZORA.
  XC: Using PBE gradient-corrected functionals.
  Using the default MBD implementation with analytical forces
 
  Reading configuration options for species Pd                  .
  | Found nuclear charge :  46.0000
  | Found atomic mass :    106.420000000000      amu
  | Found l_max for Hartree potential  :   6
  | Found cutoff potl. onset [A], width [A], scale factor :    4.00000    2.00000    1.00000
  | Threshold for basis-dependent cutoff potential is   0.100000E-03
  | Found data for basic radial integration grid :    62 points, outermost radius =    7.000 A
  | Found multiplier for basic radial grid :   2
  | Found angular grid specification: user-specified.
  | Specified grid contains     6 separate shells.
  | Check grid settings after all constraints further below.
  | Found free-atom valence shell :  5 s   1.000
  | Found free-atom valence shell :  4 p   6.000
  | Found free-atom valence shell :  4 d   9.000
  | Found free-ion valence shell :  5 s   0.000
  | Found free-ion valence shell :  4 p   6.000
  | Found free-ion valence shell :  4 d   8.000
  | Found ionic basis function :  5 p , default cutoff radius.
  | Found hydrogenic basis function :  4 f   8.000
  | Found hydrogenic basis function :  5 g  10.000
  | Found hydrogenic basis function :  3 s   2.600
  | Found hydrogenic basis function :  3 d   2.500
  | Found hydrogenic basis function :  5 f  17.200
  | Found hydrogenic basis function :  6 h  14.000
  | Found hydrogenic basis function :  4 d   4.000
  | Found hydrogenic basis function :  5 f   7.600
  | Found hydrogenic basis function :  3 p   3.300
  | Found hydrogenic basis function :  4 s   9.400
  Species Pd                  : Missing cutoff potential type.
  Defaulting to exp(1/x)/(1-x)^2 type cutoff potential.
  Species Pd: No 'logarithmic' tag. Using default grid for free atom:
  | Default logarithmic grid data [bohr] : 0.1000E-03 0.1000E+03 0.1012E+01
  | Will include ionic basis functions of  2.0-fold positive Pd                   ion.
  Species Pd: On-site basis accuracy parameter (for Gram-Schmidt orthonormalisation) not specified.
  Using default value basis_acc =  0.1000000E-03.
  Species Pd                  : Using default innermost maximum threshold i_radial=  2 for radial functions.
  Species Pd                  : Default cutoff onset for free atom density etc. : 0.40000000E+01 AA.
  Species Pd                  : Basic radial grid will be enhanced according to radial_multiplier =   2, to contain   125 grid points.
 
  Reading configuration options for species P                   .
  | Found nuclear charge :  15.0000
  | Found atomic mass :    30.9737620000000      amu
  | Found l_max for Hartree potential  :   6
  | Found cutoff potl. onset [A], width [A], scale factor :    4.00000    2.00000    1.00000
  | Threshold for basis-dependent cutoff potential is   0.100000E-03
  | Found data for basic radial integration grid :    43 points, outermost radius =    7.000 A
  | Found multiplier for basic radial grid :   2
  | Found angular grid specification: user-specified.
  | Specified grid contains     6 separate shells.
  | Check grid settings after all constraints further below.
  | Found free-atom valence shell :  3 s   2.000
  | Found free-atom valence shell :  3 p   3.000
  | Found free-ion valence shell :  3 s   1.000
  | Found free-ion valence shell :  3 p   2.000
  | Found ionic basis function :  3 d , default cutoff radius.
  | Found ionic basis function :  3 p , default cutoff radius.
  | Found hydrogenic basis function :  4 f   6.200
  | Found hydrogenic basis function :  5 g   8.600
  | Found ionic basis function :  3 s , default cutoff radius.
  | Found hydrogenic basis function :  4 d   6.200
  | Found hydrogenic basis function :  4 p   9.200
  | Found hydrogenic basis function :  5 f   9.800
  | Found hydrogenic basis function :  1 s   0.700
  | Found hydrogenic basis function :  5 g  13.200
  Species P                   : Missing cutoff potential type.
  Defaulting to exp(1/x)/(1-x)^2 type cutoff potential.
  Species P : No 'logarithmic' tag. Using default grid for free atom:
  | Default logarithmic grid data [bohr] : 0.1000E-03 0.1000E+03 0.1012E+01
  | Will include ionic basis functions of  2.0-fold positive P                    ion.
  Species P : On-site basis accuracy parameter (for Gram-Schmidt orthonormalisation) not specified.
  Using default value basis_acc =  0.1000000E-03.
  Species P                   : Using default innermost maximum threshold i_radial=  2 for radial functions.
  Species P                   : Default cutoff onset for free atom density etc. : 0.40000000E+01 AA.
  Species P                   : Basic radial grid will be enhanced according to radial_multiplier =   2, to contain    87 grid points.
 
  Reading configuration options for species S                   .
  | Found nuclear charge :  16.0000
  | Found atomic mass :    32.0650000000000      amu
  | Found l_max for Hartree potential  :   6
  | Found cutoff potl. onset [A], width [A], scale factor :    4.00000    2.00000    1.00000
  | Threshold for basis-dependent cutoff potential is   0.100000E-03
  | Found data for basic radial integration grid :    44 points, outermost radius =    7.000 A
  | Found multiplier for basic radial grid :   2
  | Found angular grid specification: user-specified.
  | Specified grid contains     5 separate shells.
  | Check grid settings after all constraints further below.
  | Found free-atom valence shell :  3 s   2.000
  | Found free-atom valence shell :  3 p   4.000
  | Found free-ion valence shell :  3 s   1.000
  | Found free-ion valence shell :  3 p   3.000
  | Found ionic basis function :  3 d , default cutoff radius.
  | Found hydrogenic basis function :  2 p   1.800
  | Found hydrogenic basis function :  4 f   7.000
  | Found ionic basis function :  3 s , default cutoff radius.
  | Found hydrogenic basis function :  4 d   6.200
  | Found hydrogenic basis function :  5 g  10.800
  | Found hydrogenic basis function :  4 p   4.900
  | Found hydrogenic basis function :  5 f  10.000
  | Found hydrogenic basis function :  1 s   0.800
  Species S                   : Missing cutoff potential type.
  Defaulting to exp(1/x)/(1-x)^2 type cutoff potential.
  Species S : No 'logarithmic' tag. Using default grid for free atom:
  | Default logarithmic grid data [bohr] : 0.1000E-03 0.1000E+03 0.1012E+01
  | Will include ionic basis functions of  2.0-fold positive S                    ion.
  Species S : On-site basis accuracy parameter (for Gram-Schmidt orthonormalisation) not specified.
  Using default value basis_acc =  0.1000000E-03.
  Species S                   : Using default innermost maximum threshold i_radial=  2 for radial functions.
  Species S                   : Default cutoff onset for free atom density etc. : 0.40000000E+01 AA.
  Species S                   : Basic radial grid will be enhanced according to radial_multiplier =   2, to contain    89 grid points.
  | MBD: Using the same k-grid sampling as DFT
 
  Finished reading input file 'control.in'. Consistency checks are next.
 
  MPI_IN_PLACE appears to work with this MPI implementation.
  | Keeping use_mpi_in_place .true. (see manual).
  Target number of points in a grid batch is not set. Defaulting to  100
  Method for grid partitioning is not set. Defaulting to parallel hash+maxmin partitioning.
  Batch size limit is not set. Defaulting to    200
  By default, will store active basis functions for each batch.
  If in need of memory, prune_basis_once .false. can be used to disable this option.
  communication_type for Hartree potential was not specified.
  Defaulting to calc_hartree .
  Defaulting to Pulay charge density mixer.
  Pulay mixer: Number of relevant iterations not set.
  Defaulting to    8 iterations.
  Pulay mixer: Number of initial linear mixing iterations not set.
  Defaulting to    0 iterations.
  Work space size for distributed Hartree potential not set.
  Defaulting to   0.200000E+03 MB.
  Mixing parameter for charge density mixing has not been set.
  Using default: charge_mix_param =     0.0500.
  The mixing parameter will be adjusted in iteration number     2 of the first full s.c.f. cycle only.
  Algorithm-dependent basis array size parameters:
  | n_max_pulay                         :        8
 * Notice: The s.c.f. convergence criterion sc_accuracy_rho was not provided.
 * We used to stop in this case, and ask the user to provide reasonable
 * scf convergence criteria. However, this led some users to employ criteria
 * that led to extremely long run times, e.g., for simple relaxation.
 * We now preset a default value for sc_accuracy_rho if it is not set.
 * You may still wish to check if this setting is too tight or too loose for your needs.
 * Based on n_atoms, FHI-aims chose sc_accuracy_rho =  0.400000E-05 .
  Maximum number of self-consistency iterations not provided.
  Presetting  1000 iterations.
  Presetting      1001 iterations before the initial mixing cycle
  is restarted anyway using the sc_init_iter criterion / keyword.
  Presetting a factor      1.000 between actual scf density residual
  and density convergence criterion sc_accuracy_rho below which sc_init_iter
  takes no effect.
 * No s.c.f. convergence criteria (sc_accuracy_*) were provided in control.in.
 * The run will proceed with a reasonable default guess, but please check whether.
 * the s.c.f. cycles seem to take too much or too little time.
  No maximum number of relaxation steps, defaulting to     1000
  Default initial Hessian is Lindh matrix (thres = 15.00) plus  0.200000E+01 eV/A^2 times unity.
  No maximum energy tolerance for TRM/BFGS moves, defaulting to   0.200000E-03
  No harmonic length scale. Defaulting to   0.250000E-01 A.
  No trust radius initializer. Defaulting to   0.200000E+00 A.
  Unit cell relaxation: Restricted relaxation with fixed angles between lattice vectors.
  Unit cell relaxation: Analytical stress will be used.
  Analytical stress will be computed.
  Analytical stress calculation: Only the upper triangle is calculated.
                                 Final output is symmetrized.
  Analytical stress calculation: scf convergence accuracy of stress not set.
                                 Analytical stress self-consistency will not be checked explicitly.
                                 Be sure to set other criteria like sc_accuracy_rho tight enough.
  Force calculation: scf convergence accuracy of forces not set.
  Defaulting to 'sc_accuracy_forces not_checked'.
  Handling of forces: Unphysical translation and rotation will be removed from forces.
  No accuracy limit for integral partition fn. given. Defaulting to  0.1000E-14.
  No threshold value for u(r) in integrations given. Defaulting to  0.1000E-05.
  No occupation type (smearing scheme) given. Defaulting to Gaussian broadening, width =  0.1000E-01 eV.
  The width will be adjusted in iteration number     2 of the first full s.c.f. cycle only.
  S.C.F. convergence parameters will be adjusted in iteration number     2 of the first full s.c.f. cycle only.
  No accuracy for occupation numbers given. Defaulting to  0.1000E-12.
  No threshold value for occupation numbers given. Defaulting to  0.0000E+00.
  No accuracy for fermi level given. Defaulting to  0.1000E-19.
  Maximum # of iterations to find E_F not set. Defaulting to  200.
  Preferred method for the eigenvalue solver ('KS_method') not specified in 'control.in'.
  Defaulting to serial version, 'lapack_fast', since more k-points than CPUs available.
  Will not use alltoall communication since running on < 1024 CPUs.
  Threshold for basis singularities not set.
  Default threshold for basis singularities:  0.1000E-04
  partition_type (choice of integration weights) for integrals was not specified.
  | Using a version of the partition function of Stratmann and coworkers ('stratmann_smoother').
  | At each grid point, the set of atoms used to build the partition table is smoothly restricted to
  | only those atoms whose free-atom density would be non-zero at that grid point.
  Partitioning for Hartree potential was not defined. Using partition_type for integrals.
  | Adjusted default value of keyword multip_moments_threshold to:       0.10000000E-11
  | This value may affect high angular momentum components of the Hartree potential in periodic systems.
  Angular momentum expansion for Kerker preconditioner not set explicitly.
  | Using default value of   0
  No explicit requirement for turning off preconditioner.
  | By default, it will be turned off when the charge convergence reaches
  | sc_accuracy_rho  =   0.400000E-05
  No special mixing parameter while Kerker preconditioner is on.
  Using default: charge_mix_param =     0.0500.
  No q(lm)/r^(l+1) cutoff set for long-range Hartree potential.
  | Using default value of  0.100000E-09 .
  | Verify using the multipole_threshold keyword.
  Defaulting to new monopole extrapolation.
  Density update method: automatic selection selected.
  Using density matrix based charge density update.
  Using density matrix based charge density update.
  Using packed matrix style: index .
  Geometry relaxation: A file "geometry.in.next_step" is written out by default after each step.
  | This file contains the geometry of the current relaxation step as well as
  | the current Hessian matrix needed to restart the relaxation algorithm.
  | If you do not want part or all of this information, use the keywords
  | "write_restart_geometry" or "hessian_to_restart_geometry" to switch the output off.
  Defaulting to use time-reversal symmetry for k-point grid.
------------------------------------------------------------


------------------------------------------------------------
          Reading geometry description geometry.in.
------------------------------------------------------------
  Input structure read successfully.
  The structure contains       24 atoms,  and a total of        616.000 electrons.

  Input geometry:
  | Unit cell:
  |       13.89590000        0.00000000        0.00000000
  |        0.00000000        5.83116000        0.00000000
  |        0.00000000        0.00000000        5.86554000
  | Atomic structure:
  |       Atom                x [A]            y [A]            z [A]
  |    1: Species Pd            1.53188402        1.49837487        0.90399702
  |    2: Species Pd            5.41606598        1.41720513        3.83676702
  |    3: Species Pd            8.47983402        1.41720513        4.96154298
  |    4: Species Pd           12.36401598        1.49837487        2.02877298
  |    5: Species Pd           12.36401598        4.33278513        4.96154298
  |    6: Species Pd            8.47983402        4.41395487        2.02877298
  |    7: Species Pd            5.41606598        4.41395487        0.90399702
  |    8: Species Pd            1.53188402        4.33278513        3.83676702
  |    9: Species P             5.86962816        0.72288891        1.66645857
  |   10: Species P             1.07832184        2.19269109        4.59922857
  |   11: Species P            12.81757816        2.19269109        4.19908143
  |   12: Species P             8.02627184        0.72288891        1.26631143
  |   13: Species P             8.02627184        5.10827109        4.19908143
  |   14: Species P            12.81757816        3.63846891        1.26631143
  |   15: Species P             1.07832184        3.63846891        1.66645857
  |   16: Species P             5.86962816        5.10827109        4.59922857
  |   17: Species S             4.77212998        2.11776069        0.23585336
  |   18: Species S             2.17582002        0.79781931        3.16862336
  |   19: Species S            11.72007998        0.79781931        5.62968664
  |   20: Species S             9.12377002        2.11776069        2.69691664
  |   21: Species S             9.12377002        3.71339931        5.62968664
  |   22: Species S            11.72007998        5.03334069        2.69691664
  |   23: Species S             2.17582002        5.03334069        0.23585336
  |   24: Species S             4.77212998        3.71339931        3.16862336

  Lattice parameters for 3D lattice (in Angstroms) :    13.895900    5.831160    5.865540
  Angle(s) between unit vectors (in degrees)      :    90.000000   90.000000   90.000000

  |

  | The smallest distance between any two atoms is         2.19345155 AA.
  |
  | The first atom of this pair is atom number                     10 .
  | The second atom of this pair is atom number                    11 .
  | Wigner-Seitz cell of the first atom image           0     0     0 .
  | (The Wigner-Seitz cell of the second atom is 0 0 0  by definition.)

  Quantities derived from the lattice vectors:
  | Reciprocal lattice vector 1:  0.452161  0.000000  0.000000
  | Reciprocal lattice vector 2:  0.000000  1.077519  0.000000
  | Reciprocal lattice vector 3:  0.000000  0.000000  1.071203
  | Unit cell volume                               :   0.475280E+03  A^3

  Range separation radius for Ewald summation (hartree_convergence_parameter):      3.87316998 bohr.

  Fractional coordinates:
                         L1                L2                L3
       atom_frac         0.11024000        0.25696000        0.15412000  Pd
       atom_frac         0.38976000        0.24304000        0.65412000  Pd
       atom_frac         0.61024000        0.24304000        0.84588000  Pd
       atom_frac         0.88976000        0.25696000        0.34588000  Pd
       atom_frac         0.88976000        0.74304000        0.84588000  Pd
       atom_frac         0.61024000        0.75696000        0.34588000  Pd
       atom_frac         0.38976000        0.75696000        0.15412000  Pd
       atom_frac         0.11024000        0.74304000        0.65412000  Pd
       atom_frac         0.42240000        0.12397000        0.28411000  P
       atom_frac         0.07760000        0.37603000        0.78411000  P
       atom_frac         0.92240000        0.37603000        0.71589000  P
       atom_frac         0.57760000        0.12397000        0.21589000  P
       atom_frac         0.57760000        0.87603000        0.71589000  P
       atom_frac         0.92240000        0.62397000        0.21589000  P
       atom_frac         0.07760000        0.62397000        0.28411000  P
       atom_frac         0.42240000        0.87603000        0.78411000  P
       atom_frac         0.34342000        0.36318000        0.04021000  S
       atom_frac         0.15658000        0.13682000        0.54021000  S
       atom_frac         0.84342000        0.13682000        0.95979000  S
       atom_frac         0.65658000        0.36318000        0.45979000  S
       atom_frac         0.65658000        0.63682000        0.95979000  S
       atom_frac         0.84342000        0.86318000        0.45979000  S
       atom_frac         0.15658000        0.86318000        0.04021000  S
       atom_frac         0.34342000        0.63682000        0.54021000  S

  Number of empty states per atom not set in control.in - providing a guess from actual geometry.
  | Total number of empty states used during s.c.f. cycle:       92
  If you use a very high smearing, use empty_states (per atom!) in control.in to increase this value.

  Structure-dependent array size parameters: 
  | Maximum number of distinct radial functions  :       50
  | Maximum number of basis functions            :     1536
  | Number of Kohn-Sham states (occupied + empty):      400
------------------------------------------------------------

------------------------------------------------------------
          Preparing all fixed parts of the calculation.
------------------------------------------------------------
  Determining machine precision:
    2.225073858507201E-308
  Setting up grids for atomic and cluster calculations.

  Creating wave function, potential, and density for free atoms.

  Species: Pd

  List of occupied orbitals and eigenvalues:
    n    l              occ      energy [Ha]    energy [eV]
    1    0           2.0000      -913.269104    -24851.3168
    2    0           2.0000      -130.434372     -3549.2998
    3    0           2.0000       -23.521804      -640.0609
    4    0           2.0000        -3.256918       -88.6253
    5    0           1.0000        -0.157260        -4.2793
    2    1           6.0000      -116.910756     -3181.3035
    3    1           6.0000       -19.103344      -519.8284
    4    1           6.0000        -1.998052       -54.3697
    3    2          10.0000       -12.098182      -329.2083
    4    2           9.0000        -0.243389        -6.6230


  Species: P

  List of occupied orbitals and eigenvalues:
    n    l              occ      energy [Ha]    energy [eV]
    1    0           2.0000       -76.790257     -2089.5692
    2    0           2.0000        -6.393895      -173.9867
    3    0           2.0000        -0.512112       -13.9353
    2    1           6.0000        -4.574086      -124.4672
    3    1           3.0000        -0.201148        -5.4735


  Species: S

  List of occupied orbitals and eigenvalues:
    n    l              occ      energy [Ha]    energy [eV]
    1    0           2.0000       -88.680731     -2413.1255
    2    0           2.0000        -7.781719      -211.7513
    3    0           2.0000        -0.633662       -17.2428
    2    1           6.0000        -5.751976      -156.5192
    3    1           4.0000        -0.257086        -6.9957

  Creating fixed part of basis set: Ionic, confined, hydrogenic.
 
  Pd                   ion:

  List of free ionic orbitals and eigenvalues:
    n    l      energy [Ha]    energy [eV]
    1    0      -914.099884    -24873.9234
    2    0      -131.248265     -3571.4470
    3    0       -24.332473      -662.1203
    4    0        -4.059276      -110.4585
    2    1      -117.724296     -3203.4411
    3    1       -19.913908      -541.8850
    4    1        -2.795328       -76.0648
    3    2       -12.908733      -351.2645
    4    2        -1.004248       -27.3270


  List of ionic basis orbitals and eigenvalues:
    n    l      energy [Ha]    energy [eV]    outer radius [A]
    5    1        -0.516938       -14.0666       5.427025

 
  Pd                   hydrogenic:
 
  List of hydrogenic basis orbitals: 
    n    l      effective z      eigenvalue [eV]  inner max. [A]     outer max. [A]     outer radius [A]   
    4    3         8.000000       -54.4226           1.054686           1.054686           4.629581
    5    4        10.000000       -54.4226           1.330451           1.330451           5.043202
    3    0         2.600000        -9.8948           0.150992           2.606197           5.493778
    3    2         2.500000        -9.3396           1.873517           1.873517           5.493778
    5    3        17.200000      -161.0043           0.373111           1.004353           3.625407
    6    5        14.000000       -74.0753           1.363381           1.363381           4.861593
    4    2         4.000000       -13.2388           0.888779           2.736807           5.493778
    5    3         7.600000       -31.4055           0.846363           2.278272           5.427025
    3    1         3.300000       -16.4334           0.482316           1.919889           5.427025
    4    0         9.400000       -75.1373           0.041321           1.380151           4.517760
 
 
  P                    ion:

  List of free ionic orbitals and eigenvalues:
    n    l      energy [Ha]    energy [eV]
    1    0       -77.734373     -2115.2599
    2    0        -7.310959      -198.9413
    3    0        -1.271460       -34.5982
    2    1        -5.492730      -149.4648
    3    1        -0.913468       -24.8567


  List of ionic basis orbitals and eigenvalues:
    n    l      energy [Ha]    energy [eV]    outer radius [A]
    3    2        -0.457450       -12.4478       5.404780
    3    1        -0.913460       -24.8565       4.724723
    3    0        -1.271453       -34.5980       4.232463

 
  P                    hydrogenic:
 
  List of hydrogenic basis orbitals: 
    n    l      effective z      eigenvalue [eV]  inner max. [A]     outer max. [A]     outer radius [A]   
    4    3         6.200000       -32.6870           1.357793           1.357793           5.339109
    5    4         8.600000       -40.2502           1.534356           1.534356           5.404780
    4    2         6.200000       -32.6848           0.577014           1.820771           5.404780
    4    1         9.200000       -71.9740           0.161817           1.357793           4.554583
    5    3         9.800000       -52.2673           0.660067           1.776793           5.339109
    1    0         0.700000        -6.6607           0.755075           0.755075           5.404780
    5    4        13.200000       -94.8261           1.000236           1.000236           4.130234
 
 
  S                    ion:

  List of free ionic orbitals and eigenvalues:
    n    l      energy [Ha]    energy [eV]
    1    0       -89.703778     -2440.9640
    2    0        -8.775428      -238.7916
    3    0        -1.470343       -40.0101
    2    1        -6.747660      -183.6132
    3    1        -1.048627       -28.5346


  List of ionic basis orbitals and eigenvalues:
    n    l      energy [Ha]    energy [eV]    outer radius [A]
    3    2        -0.495605       -13.4861       5.386362
    3    0        -1.470336       -40.0099       3.967934

 
  S                    hydrogenic:
 
  List of hydrogenic basis orbitals: 
    n    l      effective z      eigenvalue [eV]  inner max. [A]     outer max. [A]     outer radius [A]   
    2    1         1.800000       -11.0118           1.168531           1.168531           5.452614
    4    3         7.000000       -41.6672           1.212182           1.212182           5.066981
    4    2         6.200000       -32.6848           0.582121           1.814567           5.386362
    5    4        10.800000       -63.4785           1.227092           1.227092           4.766538
    4    1         4.900000       -20.2928           0.304525           2.524192           5.452614
    5    3        10.000000       -54.4226           0.641929           1.727969           5.320915
    1    0         0.800000        -8.7059           0.657818           0.657818           5.386362
 

  Adding cutoff potential to free-atom effective potential.
  Creating atomic-like basis functions for current effective potential.

  Species Pd                  :

  List of atomic basis orbitals and eigenvalues:
    n    l      energy [Ha]    energy [eV]    outer radius [A]
    1    0      -913.269104    -24851.3168       0.223280
    2    0      -130.434372     -3549.2998       0.615909
    3    0       -23.521804      -640.0609       1.414312
    4    0        -3.256918       -88.6253       3.581357
    5    0        -0.157260        -4.2793       5.427025
    2    1      -116.910756     -3181.3035       0.631154
    3    1       -19.103344      -519.8284       1.540671
    4    1        -1.998052       -54.3697       4.408641
    3    2       -12.098182      -329.2083       1.806051
    4    2        -0.243389        -6.6230       5.361084


  Species P                   :

  List of atomic basis orbitals and eigenvalues:
    n    l      energy [Ha]    energy [eV]    outer radius [A]
    1    0       -76.790257     -2089.5692       0.727884
    2    0        -6.393895      -173.9867       2.532824
    3    0        -0.512112       -13.9353       5.274236
    2    1        -4.574086      -124.4672       2.862183
    3    1        -0.201148        -5.4735       5.404780


  Species S                   :

  List of atomic basis orbitals and eigenvalues:
    n    l      energy [Ha]    energy [eV]    outer radius [A]
    1    0       -88.680731     -2413.1255       0.682391
    2    0        -7.781719      -211.7513       2.289014
    3    0        -0.633662       -17.2428       5.256262
    2    1        -5.751976      -156.5192       2.555240
    3    1        -0.257086        -6.9957       5.386362

  Assembling full basis from fixed parts.
  | Species Pd :   atomic orbital   1 s accepted.
  | Species Pd :   atomic orbital   2 s accepted.
  | Species Pd :   atomic orbital   3 s accepted.
  | Species Pd :   atomic orbital   4 s accepted.
  | Species Pd :    hydro orbital   4 s accepted.
  | Species Pd :   atomic orbital   5 s accepted.
  | Species Pd :    hydro orbital   3 s accepted.
  | Species Pd :   atomic orbital   2 p accepted.
  | Species Pd :   atomic orbital   3 p accepted.
  | Species Pd :   atomic orbital   4 p accepted.
  | Species Pd :    ionic orbital   5 p accepted.
  | Species Pd :    hydro orbital   3 p accepted.
  | Species Pd :   atomic orbital   3 d accepted.
  | Species Pd :   atomic orbital   4 d accepted.
  | Species Pd :    hydro orbital   3 d accepted.
  | Species Pd :    hydro orbital   4 d accepted.
  | Species Pd :    hydro orbital   5 f accepted.
  | Species Pd :    hydro orbital   4 f accepted.
  | Species Pd :    hydro orbital   5 f accepted.
  | Species Pd :    hydro orbital   5 g accepted.
  | Species Pd :    hydro orbital   6 h accepted.
  | Species P :   atomic orbital   1 s accepted.
  | Species P :   atomic orbital   2 s accepted.
  | Species P :    ionic orbital   3 s accepted.
  | Species P :   atomic orbital   3 s accepted.
  | Species P :    hydro orbital   1 s accepted.
  | Species P :   atomic orbital   2 p accepted.
  | Species P :    hydro orbital   4 p accepted.
  | Species P :    ionic orbital   3 p accepted.
  | Species P :   atomic orbital   3 p accepted.
  | Species P :    ionic orbital   3 d accepted.
  | Species P :    hydro orbital   4 d accepted.
  | Species P :    hydro orbital   4 f accepted.
  | Species P :    hydro orbital   5 f accepted.
  | Species P :    hydro orbital   5 g accepted.
  | Species P :    hydro orbital   5 g accepted.
  | Species S :   atomic orbital   1 s accepted.
  | Species S :   atomic orbital   2 s accepted.
  | Species S :    ionic orbital   3 s accepted.
  | Species S :   atomic orbital   3 s accepted.
  | Species S :    hydro orbital   1 s accepted.
  | Species S :   atomic orbital   2 p accepted.
  | Species S :   atomic orbital   3 p accepted.
  | Species S :    hydro orbital   2 p accepted.
  | Species S :    hydro orbital   4 p accepted.
  | Species S :    ionic orbital   3 d accepted.
  | Species S :    hydro orbital   4 d accepted.
  | Species S :    hydro orbital   4 f accepted.
  | Species S :    hydro orbital   5 f accepted.
  | Species S :    hydro orbital   5 g accepted.
 
  Basis size parameters after reduction:
  | Total number of radial functions:       50
  | Total number of basis functions :     1536
 
  Per-task memory consumption for arrays in subroutine allocate_ext:
  |          18.522088MB.
  Testing on-site integration grid accuracy.
  |  Species  Function  <phi|h_atom|phi> (log., in eV)  <phi|h_atom|phi> (rad., in eV)
           1        1             -24851.3167505682             -24851.3148165636
           1        2              -3549.2998457785              -3549.2998098031
           1        3               -640.0608571327               -640.0608534886
           1        4                -88.6252603131                -88.6252593316
           1        5                 18.5246690729                 18.5246144199
           1        6                 52.8792069863                 52.8786557216
           1        7                 14.4029261099                 14.4027956450
           1        8              -3181.3035399559              -3181.3035364574
           1        9               -519.8284281886               -519.8284264063
           1       10                -54.3697495804                -54.3697489261
           1       11                  0.8628369484                  0.8628370487
           1       12                 16.2613885963                 16.2613815110
           1       13               -329.2082917394               -329.2082912864
           1       14                 -6.6230267036                 -6.6230265076
           1       15                  5.4924295291                  5.4924115607
           1       16                 20.9810059921                 20.9809511249
           1       17                 71.7764955210                 71.7764953797
           1       18                 68.0082778310                 68.0082774630
           1       19                 18.3729273417                 18.3729286226
           1       20                 38.8271273823                 38.8271278029
           1       21                 60.1424809373                 60.1424811704
           2       22              -2089.5691986335              -2089.5691596863
           2       23               -173.9867283695               -173.9867277557
           2       24                -13.6361081844                -13.6361080848
           2       25                  6.3196202277                  6.3196248730
           2       26                 35.5063910317                 35.5046278689
           2       27               -124.4672117337               -124.4672115736
           2       28                 21.7850805219                 21.7850807420
           2       29                  5.4728117229                  5.4728126931
           2       30                 14.2823439458                 14.2814867513
           2       31                  5.1351171633                  5.1350933795
           2       32                 22.1926334062                 22.1926306446
           2       33                 19.3185135835                 19.3185098349
           2       34                 63.1205943020                 63.1205948499
           2       35                 69.5737792273                 69.5737793637
           2       36                 45.7043959527                 45.7043800010
           3       37              -2413.1254568977              -2413.1254096663
           3       38               -211.7513411281               -211.7513404762
           3       39                -16.9725280787                -16.9725279206
           3       40                  7.6024436204                  7.6024549059
           3       41                 48.5754986810                 48.5751292871
           3       42               -156.5192206929               -156.5192205451
           3       43                 -6.9959757887                 -6.9959777655
           3       44                  6.8896462809                  6.8895564741
           3       45                 27.2255287136                 27.2252601701
           3       46                  6.0214250550                  6.0214220200
           3       47                 19.6206468977                 19.6206494558
           3       48                 24.7008710786                 24.7008710738
           3       49                 58.2239314522                 58.2239319465
           3       50                 47.5292252001                 47.5292260486

  Preparing densities etc. for the partition functions (integrals / Hartree potential).

  Preparations completed.
  max(cpu_time)          :      0.564 s.
  Wall clock time (cpu1) :      0.564 s.
------------------------------------------------------------

------------------------------------------------------------
          Begin self-consistency loop: Initialization.

          Date     :  20191127, Time     :  232736.768
------------------------------------------------------------

  Initializing index lists of integration centers etc. from given atomic structure:
  Mapping all atomic coordinates to central unit cell.

  Initializing the k-points
          Using symmetry for reducing the k-points
  | k-points reduced from:     5832 to     2920
  | Number of k-points                             :      2920
  The eigenvectors in the calculations are COMPLEX.
  | K-points in task   0:        36
  | K-points in task   1:        37
  | K-points in task   2:        37
  | K-points in task   3:        37
  | K-points in task   4:        37
  | K-points in task   5:        37
  | K-points in task   6:        37
  | K-points in task   7:        37
  | K-points in task   8:        37
  | K-points in task   9:        37
  | K-points in task  10:        37
  | K-points in task  11:        37
  | K-points in task  12:        37
  | K-points in task  13:        37
  | K-points in task  14:        37
  | K-points in task  15:        37
  | K-points in task  16:        37
  | K-points in task  17:        37
  | K-points in task  18:        37
  | K-points in task  19:        37
  | K-points in task  20:        37
  | K-points in task  21:        37
  | K-points in task  22:        37
  | K-points in task  23:        37
  | K-points in task  24:        37
  | K-points in task  25:        37
  | K-points in task  26:        37
  | K-points in task  27:        37
  | K-points in task  28:        37
  | K-points in task  29:        37
  | K-points in task  30:        37
  | K-points in task  31:        37
  | K-points in task  32:        37
  | K-points in task  33:        37
  | K-points in task  34:        37
  | K-points in task  35:        37
  | K-points in task  36:        37
  | K-points in task  37:        37
  | K-points in task  38:        37
  | K-points in task  39:        37
  | K-points in task  40:        37
  | K-points in task  41:        36
  | K-points in task  42:        36
  | K-points in task  43:        36
  | K-points in task  44:        36
  | K-points in task  45:        36
  | K-points in task  46:        36
  | K-points in task  47:        36
  | K-points in task  48:        36
  | K-points in task  49:        36
  | K-points in task  50:        36
  | K-points in task  51:        36
  | K-points in task  52:        36
  | K-points in task  53:        36
  | K-points in task  54:        36
  | K-points in task  55:        36
  | K-points in task  56:        36
  | K-points in task  57:        36
  | K-points in task  58:        36
  | K-points in task  59:        36
  | K-points in task  60:        36
  | K-points in task  61:        36
  | K-points in task  62:        36
  | K-points in task  63:        36
  | K-points in task  64:        36
  | K-points in task  65:        36
  | K-points in task  66:        36
  | K-points in task  67:        36
  | K-points in task  68:        36
  | K-points in task  69:        36
  | K-points in task  70:        36
  | K-points in task  71:        36
  | K-points in task  72:        36
  | K-points in task  73:        36
  | K-points in task  74:        36
  | K-points in task  75:        36
  | K-points in task  76:        36
  | K-points in task  77:        36
  | K-points in task  78:        36
  | K-points in task  79:        36
  | Number of basis functions in the Hamiltonian integrals :     16272
  | Number of basis functions in a single unit cell        :      1536
  | Number of centers in hartree potential         :      1622
  | Number of centers in hartree multipole         :      1014
  | Number of centers in electron density summation:       788
  | Number of centers in basis integrals           :       870
  | Number of centers in integrals                 :       364
  | Number of centers in hamiltonian               :       788
  | Consuming       3102 KiB for k_phase.
  | Number of super-cells (origin) [n_cells]                     :         405
  | Number of super-cells (after PM_index) [n_cells]             :          68
  | Number of super-cells in hamiltonian [n_cells_in_hamiltonian]:          68
  | Size of matrix packed + index [n_hamiltonian_matrix_size] :    10136149
  Initializing relaxation algorithms.
  Partitioning the integration grid into batches with parallel hashing+maxmin method.
  | Number of batches:     6703
  | Maximal batch size:     105
  | Minimal batch size:      49
  | Average batch size:      83.270
  | Standard deviation of batch sizes:      11.840

  Integration load balanced across    80 MPI tasks.
  Work distribution over tasks is as follows:
  Task     0 has       7020 integration points.
  Task     1 has       6999 integration points.
  Task     2 has       6980 integration points.
  Task     3 has       6960 integration points.
  Task     4 has       6968 integration points.
  Task     5 has       6989 integration points.
  Task     6 has       7022 integration points.
  Task     7 has       7020 integration points.
  Task     8 has       6924 integration points.
  Task     9 has       7022 integration points.
  Task    10 has       6995 integration points.
  Task    11 has       7024 integration points.
  Task    12 has       7018 integration points.
  Task    13 has       6929 integration points.
  Task    14 has       6990 integration points.
  Task    15 has       7004 integration points.
  Task    16 has       6926 integration points.
  Task    17 has       6962 integration points.
  Task    18 has       6928 integration points.
  Task    19 has       7017 integration points.
  Task    20 has       6924 integration points.
  Task    21 has       6962 integration points.
  Task    22 has       6962 integration points.
  Task    23 has       7023 integration points.
  Task    24 has       7012 integration points.
  Task    25 has       6926 integration points.
  Task    26 has       7019 integration points.
  Task    27 has       6992 integration points.
  Task    28 has       6982 integration points.
  Task    29 has       6978 integration points.
  Task    30 has       6931 integration points.
  Task    31 has       6983 integration points.
  Task    32 has       6990 integration points.
  Task    33 has       6993 integration points.
  Task    34 has       7019 integration points.
  Task    35 has       6993 integration points.
  Task    36 has       7016 integration points.
  Task    37 has       6926 integration points.
  Task    38 has       6929 integration points.
  Task    39 has       6986 integration points.
  Task    40 has       6931 integration points.
  Task    41 has       6973 integration points.
  Task    42 has       6992 integration points.
  Task    43 has       6995 integration points.
  Task    44 has       6961 integration points.
  Task    45 has       6925 integration points.
  Task    46 has       6927 integration points.
  Task    47 has       6931 integration points.
  Task    48 has       7009 integration points.
  Task    49 has       6979 integration points.
  Task    50 has       6933 integration points.
  Task    51 has       6977 integration points.
  Task    52 has       6995 integration points.
  Task    53 has       6959 integration points.
  Task    54 has       6995 integration points.
  Task    55 has       6957 integration points.
  Task    56 has       6991 integration points.
  Task    57 has       6981 integration points.
  Task    58 has       6926 integration points.
  Task    59 has       7014 integration points.
  Task    60 has       6985 integration points.
  Task    61 has       7025 integration points.
  Task    62 has       6975 integration points.
  Task    63 has       6928 integration points.
  Task    64 has       7017 integration points.
  Task    65 has       7021 integration points.
  Task    66 has       6962 integration points.
  Task    67 has       6975 integration points.
  Task    68 has       6966 integration points.
  Task    69 has       6995 integration points.
  Task    70 has       6998 integration points.
  Task    71 has       6935 integration points.
  Task    72 has       7015 integration points.
  Task    73 has       7014 integration points.
  Task    74 has       6970 integration points.
  Task    75 has       6924 integration points.
  Task    76 has       7024 integration points.
  Task    77 has       6930 integration points.
  Task    78 has       6982 integration points.
  Task    79 has       6925 integration points.
  Initializing partition tables, free-atom densities, potentials, etc. across the integration grid (initialize_grid_storage).
  | initialize_grid_storage: Actual outermost partition radius vs. multipole_radius_free
  | (-- VB: in principle, multipole_radius_free should be larger, hence this output)
  | Species        1: Confinement radius =              6.000000000000000 AA, multipole_radius_free =              6.058219618167466 AA.
  | Species        1: outer_partition_radius set to              6.058219618167466 AA .
  | Species        2: Confinement radius =              6.000000000000000 AA, multipole_radius_free =              6.033387558927091 AA.
  | Species        2: outer_partition_radius set to              6.033387558927091 AA .
  | Species        3: Confinement radius =              6.000000000000000 AA, multipole_radius_free =              6.012827091137924 AA.
  | Species        3: outer_partition_radius set to              6.012827091137924 AA .
  | Original list of interatomic distances with         870 x        870 entries is created.
  | Net number of integration points:   558160
  | of which are non-zero points    :   437528
  | Numerical average free-atom electrostatic potential    :    -15.58354846 eV
  Renormalizing the initial density to the exact electron count on the 3D integration grid.
  | Initial density: Formal number of electrons (from input files) :     616.0000000000
  | Integrated number of electrons on 3D grid     :     616.0002436943
  | Charge integration error                      :       0.0002436943
  | Normalization factor for density and gradient :       0.9999996044
  Obtaining max. number of non-zero basis functions in each batch (get_n_compute_maxes).
  | Maximal number of non-zero basis functions:     2222 in task     0
  | Maximal number of non-zero basis functions:     2223 in task     1
  | Maximal number of non-zero basis functions:     2203 in task     2
  | Maximal number of non-zero basis functions:     2230 in task     3
  | Maximal number of non-zero basis functions:     2225 in task     4
  | Maximal number of non-zero basis functions:     2230 in task     5
  | Maximal number of non-zero basis functions:     2232 in task     6
  | Maximal number of non-zero basis functions:     2223 in task     7
  | Maximal number of non-zero basis functions:     2226 in task     8
  | Maximal number of non-zero basis functions:     2298 in task     9
  | Maximal number of non-zero basis functions:     2215 in task    10
  | Maximal number of non-zero basis functions:     2218 in task    11
  | Maximal number of non-zero basis functions:     2207 in task    12
  | Maximal number of non-zero basis functions:     2243 in task    13
  | Maximal number of non-zero basis functions:     2222 in task    14
  | Maximal number of non-zero basis functions:     2230 in task    15
  | Maximal number of non-zero basis functions:     2290 in task    16
  | Maximal number of non-zero basis functions:     2201 in task    17
  | Maximal number of non-zero basis functions:     2230 in task    18
  | Maximal number of non-zero basis functions:     2202 in task    19
  | Maximal number of non-zero basis functions:     2248 in task    20
  | Maximal number of non-zero basis functions:     2291 in task    21
  | Maximal number of non-zero basis functions:     2231 in task    22
  | Maximal number of non-zero basis functions:     2191 in task    23
  | Maximal number of non-zero basis functions:     2188 in task    24
  | Maximal number of non-zero basis functions:     2194 in task    25
  | Maximal number of non-zero basis functions:     2226 in task    26
  | Maximal number of non-zero basis functions:     2208 in task    27
  | Maximal number of non-zero basis functions:     2206 in task    28
  | Maximal number of non-zero basis functions:     2210 in task    29
  | Maximal number of non-zero basis functions:     2216 in task    30
  | Maximal number of non-zero basis functions:     2241 in task    31
  | Maximal number of non-zero basis functions:     2231 in task    32
  | Maximal number of non-zero basis functions:     2208 in task    33
  | Maximal number of non-zero basis functions:     2307 in task    34
  | Maximal number of non-zero basis functions:     2293 in task    35
  | Maximal number of non-zero basis functions:     2287 in task    36
  | Maximal number of non-zero basis functions:     2261 in task    37
  | Maximal number of non-zero basis functions:     2230 in task    38
  | Maximal number of non-zero basis functions:     2201 in task    39
  | Maximal number of non-zero basis functions:     2202 in task    40
  | Maximal number of non-zero basis functions:     2229 in task    41
  | Maximal number of non-zero basis functions:     2234 in task    42
  | Maximal number of non-zero basis functions:     2222 in task    43
  | Maximal number of non-zero basis functions:     2219 in task    44
  | Maximal number of non-zero basis functions:     2206 in task    45
  | Maximal number of non-zero basis functions:     2215 in task    46
  | Maximal number of non-zero basis functions:     2291 in task    47
  | Maximal number of non-zero basis functions:     2225 in task    48
  | Maximal number of non-zero basis functions:     2197 in task    49
  | Maximal number of non-zero basis functions:     2287 in task    50
  | Maximal number of non-zero basis functions:     2225 in task    51
  | Maximal number of non-zero basis functions:     2223 in task    52
  | Maximal number of non-zero basis functions:     2198 in task    53
  | Maximal number of non-zero basis functions:     2204 in task    54
  | Maximal number of non-zero basis functions:     2238 in task    55
  | Maximal number of non-zero basis functions:     2188 in task    56
  | Maximal number of non-zero basis functions:     2252 in task    57
  | Maximal number of non-zero basis functions:     2191 in task    58
  | Maximal number of non-zero basis functions:     2249 in task    59
  | Maximal number of non-zero basis functions:     2205 in task    60
  | Maximal number of non-zero basis functions:     2222 in task    61
  | Maximal number of non-zero basis functions:     2314 in task    62
  | Maximal number of non-zero basis functions:     2215 in task    63
  | Maximal number of non-zero basis functions:     2240 in task    64
  | Maximal number of non-zero basis functions:     2209 in task    65
  | Maximal number of non-zero basis functions:     2243 in task    66
  | Maximal number of non-zero basis functions:     2188 in task    67
  | Maximal number of non-zero basis functions:     2228 in task    68
  | Maximal number of non-zero basis functions:     2251 in task    69
  | Maximal number of non-zero basis functions:     2203 in task    70
  | Maximal number of non-zero basis functions:     2224 in task    71
  | Maximal number of non-zero basis functions:     2208 in task    72
  | Maximal number of non-zero basis functions:     2201 in task    73
  | Maximal number of non-zero basis functions:     2223 in task    74
  | Maximal number of non-zero basis functions:     2210 in task    75
  | Maximal number of non-zero basis functions:     2194 in task    76
  | Maximal number of non-zero basis functions:     2205 in task    77
  | Maximal number of non-zero basis functions:     2202 in task    78
  | Maximal number of non-zero basis functions:     2199 in task    79
  Allocating      353.894 MB for KS_eigenvector_complex
  Integrating Hamiltonian matrix: batch-based integration.
  Time summed over all CPUs for integration: real work      389.440 s, elapsed      397.804 s
  Integrating overlap matrix.
  Time summed over all CPUs for integration: real work      303.384 s, elapsed      309.639 s
  Decreasing sparse matrix size:
   Tolerance:  9.999999824516700E-014
   Hamiltonian matrix
  | Array has  8881564 nonzero elements out of 10136149 elements
  | Sparsity factor is 0.124
   Overlap matrix
  | Array has  8270284 nonzero elements out of 10136149 elements
  | Sparsity factor is 0.184
  New size of hamiltonian matrix:     8881797

  Updating Kohn-Sham eigenvalues and eigenvectors using ELSI and the ELPA eigensolver.
  Overlap matrix is nonsingular
  | Lowest eigenvalue of overlap  :  0.17E-04
  | Highest eigenvalue of overlap :  0.11E+02
  Finished singularity check of overlap matrix
  | Time :     2.811 s
  Finished Cholesky decomposition
  | Time :     0.308 s
  Finished transformation to standard eigenproblem
  | Time :     0.524 s
  Starting LAPACK eigensolver
  Finished solving standard eigenproblem
  | Time :     2.939 s
  Finished back-transformation of eigenvectors
  | Time :     0.110 s

  Obtaining occupation numbers and chemical potential using ELSI.
  | Chemical potential (Fermi level):    -5.76169135eV
  Writing Kohn-Sham eigenvalues.
  K-point:       1 at    0.000000    0.000000    0.000000 (in units of recip. lattice)

  State    Occupation    Eigenvalue [Ha]    Eigenvalue [eV]
      1       2.00000        -913.282393       -24851.67834
      2       2.00000        -913.282393       -24851.67834
      3       2.00000        -913.282393       -24851.67834
      4       2.00000        -913.282393       -24851.67834
      5       2.00000        -913.282393       -24851.67834
      6       2.00000        -913.282393       -24851.67834
      7       2.00000        -913.282393       -24851.67834
      8       2.00000        -913.282393       -24851.67834
      9       2.00000        -130.447998        -3549.67064
     10       2.00000        -130.447998        -3549.67064
     11       2.00000        -130.447998        -3549.67064
     12       2.00000        -130.447998        -3549.67064
     13       2.00000        -130.447998        -3549.67064
     14       2.00000        -130.447998        -3549.67064
     15       2.00000        -130.447998        -3549.67064
     16       2.00000        -130.447998        -3549.67064
     17       2.00000        -116.924407        -3181.67500
     18       2.00000        -116.924407        -3181.67500
     19       2.00000        -116.924407        -3181.67499
     20       2.00000        -116.924407        -3181.67499
     21       2.00000        -116.924407        -3181.67499
     22       2.00000        -116.924407        -3181.67499
     23       2.00000        -116.924406        -3181.67498
     24       2.00000        -116.924406        -3181.67498
     25       2.00000        -116.924402        -3181.67487
     26       2.00000        -116.924402        -3181.67487
     27       2.00000        -116.924402        -3181.67487
     28       2.00000        -116.924402        -3181.67487
     29       2.00000        -116.924402        -3181.67486
     30       2.00000        -116.924402        -3181.67486
     31       2.00000        -116.924402        -3181.67486
     32       2.00000        -116.924402        -3181.67486
     33       2.00000        -116.924328        -3181.67284
     34       2.00000        -116.924328        -3181.67284
     35       2.00000        -116.924328        -3181.67284
     36       2.00000        -116.924328        -3181.67284
     37       2.00000        -116.924328        -3181.67284
     38       2.00000        -116.924328        -3181.67284
     39       2.00000        -116.924328        -3181.67284
     40       2.00000        -116.924328        -3181.67284
     41       2.00000         -88.695958        -2413.53982
     42       2.00000         -88.695958        -2413.53982
     43       2.00000         -88.695958        -2413.53982
     44       2.00000         -88.695958        -2413.53982
     45       2.00000         -88.695958        -2413.53982
     46       2.00000         -88.695958        -2413.53982
     47       2.00000         -88.695958        -2413.53982
     48       2.00000         -88.695958        -2413.53982
     49       2.00000         -76.815479        -2090.25555
     50       2.00000         -76.815479        -2090.25555
     51       2.00000         -76.815479        -2090.25555
     52       2.00000         -76.815479        -2090.25555
     53       2.00000         -76.815479        -2090.25555
     54       2.00000         -76.815479        -2090.25555
     55       2.00000         -76.815479        -2090.25555
     56       2.00000         -76.815479        -2090.25555
     57       2.00000         -23.536330         -640.45613
     58       2.00000         -23.536330         -640.45613
     59       2.00000         -23.536330         -640.45613
     60       2.00000         -23.536330         -640.45613
     61       2.00000         -23.536330         -640.45613
     62       2.00000         -23.536330         -640.45613
     63       2.00000         -23.536330         -640.45613
     64       2.00000         -23.536330         -640.45613
     65       2.00000         -19.118162         -520.23166
     66       2.00000         -19.118162         -520.23166
     67       2.00000         -19.118162         -520.23166
     68       2.00000         -19.118162         -520.23166
     69       2.00000         -19.118162         -520.23166
     70       2.00000         -19.118162         -520.23166
     71       2.00000         -19.118162         -520.23166
     72       2.00000         -19.118162         -520.23166
     73       2.00000         -19.118117         -520.23043
     74       2.00000         -19.118117         -520.23043
     75       2.00000         -19.118117         -520.23043
     76       2.00000         -19.118117         -520.23043
     77       2.00000         -19.118117         -520.23043
     78       2.00000         -19.118117         -520.23043
     79       2.00000         -19.118117         -520.23043
     80       2.00000         -19.118117         -520.23043
     81       2.00000         -19.117392         -520.21070
     82       2.00000         -19.117392         -520.21070
     83       2.00000         -19.117392         -520.21070
     84       2.00000         -19.117392         -520.21070
     85       2.00000         -19.117392         -520.21070
     86       2.00000         -19.117392         -520.21070
     87       2.00000         -19.117392         -520.21070
     88       2.00000         -19.117392         -520.21070
     89       2.00000         -12.113000         -329.61150
     90       2.00000         -12.113000         -329.61150
     91       2.00000         -12.113000         -329.61150
     92       2.00000         -12.113000         -329.61150
     93       2.00000         -12.113000         -329.61150
     94       2.00000         -12.113000         -329.61150
     95       2.00000         -12.113000         -329.61150
     96       2.00000         -12.113000         -329.61150
     97       2.00000         -12.112953         -329.61023
     98       2.00000         -12.112953         -329.61023
     99       2.00000         -12.112953         -329.61023
    100       2.00000         -12.112953         -329.61023
    101       2.00000         -12.112953         -329.61023
    102       2.00000         -12.112953         -329.61023
    103       2.00000         -12.112953         -329.61023
    104       2.00000         -12.112953         -329.61023
    105       2.00000         -12.112489         -329.59760
    106       2.00000         -12.112489         -329.59760
    107       2.00000         -12.112489         -329.59760
    108       2.00000         -12.112489         -329.59760
    109       2.00000         -12.112489         -329.59760
    110       2.00000         -12.112489         -329.59760
    111       2.00000         -12.112489         -329.59760
    112       2.00000         -12.112489         -329.59760
    113       2.00000         -12.112460         -329.59680
    114       2.00000         -12.112460         -329.59680
    115       2.00000         -12.112460         -329.59680
    116       2.00000         -12.112460         -329.59680
    117       2.00000         -12.112460         -329.59680
    118       2.00000         -12.112460         -329.59680
    119       2.00000         -12.112460         -329.59680
    120       2.00000         -12.112460         -329.59680
    121       2.00000         -12.112331         -329.59330
    122       2.00000         -12.112331         -329.59330
    123       2.00000         -12.112331         -329.59330
    124       2.00000         -12.112331         -329.59329
    125       2.00000         -12.112331         -329.59329
    126       2.00000         -12.112331         -329.59329
[...]
    Strain deriv. of the orbitals :     0.5753336299E+03    0.1171743708E+04    0.1210957773E+04    0.2000018335E-02    0.1718235810E-01   -0.1245113551E+00
    vdW correction   :     0.5108073413E+01    0.4972938939E+01    0.5061446462E+01   -0.5297640672E-06    0.8846433327E-04   -0.2080083769E-03
  -----------------------------------------------------------------------------------------------------------------------------------------------------------
  Sum of all contributions        :     0.2444497247E-01    0.9094584308E-01   -0.1189699079E+00    0.1274582279E-02    0.2913582570E-02    0.1663611060E-01

  +-------------------------------------------------------------------+
  |              Analytical stress tensor - Symmetrized               |
  |                  Cartesian components [eV/A**3]                   |
  +-------------------------------------------------------------------+
  |                x                y                z                |
  |                                                                   |
  |  x         0.00005526       0.00000288       0.00000659           |
  |  y         0.00000288       0.00020560       0.00003761           |
  |  z         0.00000659       0.00003761      -0.00026895           |
  |                                                                   |
  |  Pressure:       0.00000270   [eV/A**3]                           |
  |                                                                   |
  +-------------------------------------------------------------------+

 * Warning: Stress tensor is anisotropic. Be aware that pressure is an isotropic quantity.

  Timings for VdW correction (Tkatchenko-Scheffler 2009 or later):
  | CPU time:      422.072 s, Wall clock time:      421.752 s.
  Removing unitary transformations (pure translations, rotations) from forces on atoms.
  Atomic forces before filtering:
  | Net force on center of mass :   0.379573E-04  0.148659E-05  0.461628E-04 eV/A
  Removing unitary transformations (rotations) from forces on lattice.
  Lattice forces before filtering:
  | Net torque relative to origin:   0.335946E-19 -0.132525E-19  0.223132E-19 eV
  Atomic forces after filtering:
  | Net force on center of mass :   0.000000E+00 -0.557519E-17  0.975658E-17 eV/A
  Lattice forces after filtering:
  | Net torque relative to origin:   0.335946E-19 -0.132525E-19  0.223132E-19 eV

  Energy and forces in a compact form:
  | Total energy uncorrected      :         -0.127267722905931E+07 eV
  | Total energy corrected        :         -0.127267722905931E+07 eV  <-- do not rely on this value for anything but (periodic) metals
  | Electronic free energy        :         -0.127267722905931E+07 eV
  Total atomic forces (unitary forces cleaned) [eV/Ang]:
  |   1          0.249756032914177E-02         -0.598084857126603E-02         -0.259178523177565E-02
  |   2         -0.557195818320905E-03         -0.604718469173516E-02          0.207963847920864E-02
  |   3          0.433223228650831E-02          0.556617319387529E-02          0.292741215696538E-02
  |   4          0.992252552216049E-04         -0.251490672380389E-02          0.456320863399111E-02
  |   5         -0.172586716409964E-02          0.463175021508499E-02          0.533444235662954E-02
  |   6          0.129608885568759E-02          0.211238677559950E-02          0.677474692875925E-02
  |   7         -0.236495216681496E-02          0.175512396153700E-02          0.345777268008611E-02
  |   8         -0.110843456999315E-02         -0.698408900694450E-03         -0.512596216350643E-02
  |   9          0.928495500345267E-03          0.119749389048542E-02          0.269605015619817E-02
  |  10         -0.393135387556173E-02         -0.270217034016571E-02          0.586502688299862E-02
  |  11          0.135652247061146E-02          0.229850466082189E-02         -0.556305486589076E-02
  |  12         -0.633953272886626E-03         -0.367653401324069E-02         -0.644410514037300E-02
  |  13          0.109385082044775E-02          0.628325102639533E-02         -0.260868180710072E-02
  |  14          0.405011903966954E-02          0.219891505224899E-02         -0.290224914501490E-02
  |  15         -0.194358426085892E-02         -0.778991505326357E-03          0.217869089454098E-02
  |  16          0.315631804576860E-02         -0.454970272134501E-02          0.199487129467826E-02
  |  17          0.139827521541806E-03          0.219269533049495E-02         -0.909562349942970E-03
  |  18          0.972771058175036E-03          0.395842849195746E-02         -0.287935142336771E-02
  |  19          0.105701152174384E-02         -0.392052672136856E-02         -0.418856496177544E-02
  |  20         -0.239535953931327E-02         -0.978366042071946E-02          0.155106608343048E-02
  |  21         -0.334298137205557E-02         -0.663202291413180E-03         -0.394322028000884E-02
  |  22         -0.123671359209831E-02         -0.240726887499868E-02          0.285269582881425E-02
  |  23          0.143559429953730E-03          0.595016182562648E-02          0.250711469953371E-02
  |  24         -0.188318650281323E-02          0.557852135194987E-02         -0.762619970707808E-02

  ------------------------------------ 
  Start decomposition of the XC Energy 
  ------------------------------------ 
  X and C from original XC functional choice 
  Hartree-Fock Energy :          0.000000000 Ha              0.000000000 eV
  X Energy            :      -1518.890189196 Ha         -41331.104951494 eV
  C Energy            :        -29.576801573 Ha           -804.825719887 eV
  Total XC Energy     :      -1548.466990769 Ha         -42135.930671381 eV
  ------------------------------------ 
  LDA X and C from self-consistent density 
  X Energy LDA        :      -1437.513406345 Ha         -39116.730023952 eV
  C Energy LDA        :        -54.181163125 Ha          -1474.344462446 eV
  ------------------------------------ 
  End decomposition of the XC Energy 
  ------------------------------------ 

------------------------------------------------------------
  Relaxation / MD: End force evaluation.       :  max(cpu_time)    wall_clock(cpu1)
  | Time for this force evaluation             :     3061.852 s        3060.940 s

------------------------------------------------------------
  Geometry optimization: Attempting to predict improved coordinates.

  +-------------------------------------------------------------------+
  | Generalized derivatives on lattice vectors [eV/A]                 |
  +-------------------------------------------------------------------+
  |lattice_vector       0.00179959       0.00009383       0.00021449  |
  |lattice_vector       0.00022373       0.01596412       0.00292021  |
  |lattice_vector       0.00050970       0.00291030      -0.02081247  |
  +-------------------------------------------------------------------+
  | Forces on lattice vectors cleaned from atomic contributions [eV/A]|
  +-------------------------------------------------------------------+
  |lattice_vector      -0.00101001      -0.00012795      -0.00173476  |
  |lattice_vector      -0.00205295      -0.00549975      -0.00479206  |
  |lattice_vector       0.00002409       0.00756837       0.00996156  |
  +-------------------------------------------------------------------+
  | Projected forces for shape relaxation  [eV/A]                     |
  +-------------------------------------------------------------------+
  |lattice_vector      -0.00101001      -0.00000000       0.00000000  |
  |lattice_vector       0.00000000      -0.00549975      -0.00000000  |
  |lattice_vector      -0.00000000       0.00000000       0.00996156  |
  +-------------------------------------------------------------------+
  Removing unitary transformations (pure translations, rotations) from forces on atoms.
  Atomic forces before filtering:
  | Net force on center of mass :   0.000000E+00 -0.557519E-17  0.975658E-17 eV/A
  Removing unitary transformations (rotations) from forces on lattice.
  Lattice forces before filtering:
  | Net torque relative to origin:  -0.806068E-34  0.000000E+00  0.000000E+00 eV
  Atomic forces after filtering:
  | Net force on center of mass :   0.000000E+00 -0.418139E-17  0.278760E-17 eV/A
  Lattice forces after filtering:
  | Net torque relative to origin:  -0.806068E-34  0.000000E+00  0.000000E+00 eV
  || Forces on lattice vectors || =   0.996156E-02 eV/A.
  Net remaining forces (excluding translations, rotations) in present geometry:
  Maximum force component is  0.996156E-02 eV/A.
  Present geometry is converged.

------------------------------------------------------------
  Final atomic structure:
                         x [A]             y [A]             z [A]
  lattice_vector        13.58361067        0.00000000       -0.00000000
  lattice_vector        -0.00000000        5.69688913        0.00000000
  lattice_vector        -0.00000000        0.00000000        5.71628071

            atom         1.51336773        1.43290002        0.91201182  Pd
            atom         5.27840839        1.41567535        3.76982009  Pd
            atom         8.30476805        1.41539965        4.80425301  Pd
            atom        12.06992322        1.43335184        1.94616195  Pd
            atom        12.07019954        4.26403352        4.80401363  Pd
            atom         8.30505826        4.28171423        1.94588183  Pd
            atom         5.27861841        4.28079146        0.91173644  Pd
            atom         1.51376796        4.26376095        3.77025339  Pd
            atom         5.69592748        0.74100318        1.60972235  P
            atom         1.09636384        2.10699172        4.46794047  P
            atom        12.48772592        2.10703594        4.10669524  P
            atom         7.88795927        0.74218444        1.24857985  P
            atom         7.88753078        4.95501592        4.10651597  P
            atom        12.48730718        3.58997616        1.24806277  P
            atom         1.09585312        3.58967750        1.60990774  P
            atom         5.69556669        4.95564725        4.46809616  P
            atom         4.73059223        2.07314999        0.25958461  S
            atom         2.06083355        0.77424754        3.11792325  S
            atom        11.52229773        0.77521391        5.45691847  S
            atom         8.85287243        2.07490593        2.59853801  S
            atom         8.85326360        3.62320939        5.45678728  S
            atom        11.52282567        4.92262620        2.59817619  S
            atom         2.06118497        4.92150109        0.25962782  S
            atom         4.73111200        3.62265635        3.11816012  S

  Fractional coordinates:
                         L1                L2                L3
       atom_frac         0.11141130        0.25152324        0.15954637  Pd
       atom_frac         0.38858655        0.24849972        0.65948827  Pd
       atom_frac         0.61138148        0.24845133        0.84045086  Pd
       atom_frac         0.88856516        0.25160255        0.34045948  Pd
       atom_frac         0.88858550        0.74848455        0.84040898  Pd
       atom_frac         0.61140285        0.75158813        0.34041047  Pd
       atom_frac         0.38860201        0.75142615        0.15949819  Pd
       atom_frac         0.11144076        0.74843671        0.65956407  Pd
       atom_frac         0.41932352        0.13007155        0.28160310  P
       atom_frac         0.08071225        0.36984952        0.78161670  P
       atom_frac         0.91932302        0.36985728        0.71842085  P
       atom_frac         0.58069680        0.13027890        0.21842522  P
       atom_frac         0.58066526        0.86977573        0.71838949  P
       atom_frac         0.91929219        0.63016430        0.21833476  P
       atom_frac         0.08067466        0.63011188        0.28163553  P
       atom_frac         0.41929696        0.86988655        0.78164394  P
       atom_frac         0.34825735        0.36390913        0.04541145  S
       atom_frac         0.15171471        0.13590707        0.54544614  S
       atom_frac         0.84825000        0.13607671        0.95462745  S
       atom_frac         0.65173190        0.36421736        0.45458545  S
       atom_frac         0.65176070        0.63599788        0.95460450  S
       atom_frac         0.84828886        0.86409022        0.45452215  S
       atom_frac         0.15174058        0.86389273        0.04541901  S
       atom_frac         0.34829561        0.63590080        0.54548758  S
------------------------------------------------------------

------------------------------------------------------------------------------
  Final output of selected total energy values:

  The following output summarizes some interesting total energy values
  at the end of a run (AFTER all relaxation, molecular dynamics, etc.).

  | Total energy of the DFT / Hartree-Fock s.c.f. calculation      :       -1272677.229059310 eV
  | Final zero-broadening corrected energy (caution - metals only) :       -1272677.229059310 eV
  | For reference only, the value of 1 Hartree used in FHI-aims is :             27.211384500 eV

  Before relying on these values, please be sure to understand exactly which
  total energy value is referred to by a given number. Different objects may
  all carry the same name 'total energy'. Definitions:

  Total energy of the DFT / Hartree-Fock s.c.f. calculation:
  | Note that this energy does not include ANY quantities calculated after the
  | s.c.f. cycle, in particular not ANY RPA, MP2, etc. many-body perturbation terms.

  Final zero-broadening corrected energy:
  | For metallic systems only, a broadening of the occupation numbers at the Fermi
  | level can be extrapolated back to zero broadening by an electron-gas inspired
  | formula. For all systems that are not real metals, this value can be
  | meaningless and should be avoided.

------------------------------------------------------------------------------
  Methods described in the following list of references were used in this FHI-aims run.
  If you publish the results, please make sure to cite these reference if they apply.
  FHI-aims is an academic code, and for our developers (often, Ph.D. students
  and postdocs), scientific credit in the community is essential.
  Thank you for helping us!

  For any use of FHI-aims, please cite:

    Volker Blum, Ralf Gehrke, Felix Hanke, Paula Havu, Ville Havu,
    Xinguo Ren, Karsten Reuter, and Matthias Scheffler
    'Ab initio molecular simulations with numeric atom-centered orbitals'
    Computer Physics Communications 180, 2175-2196 (2009)
    http://dx.doi.org/10.1016/j.cpc.2009.06.022


  For the analytical stress tensor used in your run, please cite:

    Franz Knuth, Christian Carbogno, Viktor Atalla, Volker Blum, Matthias Scheffler
    'All-electron formalism for total energy strain derivatives and
    stress tensor components for numeric atom-centered orbitals'
    Computer Physics Communications 190, 33-50 (2015).
    http://dx.doi.org/10.1016/j.cpc.2015.01.003


  The scalable eigensolver library ELPA was used in your run.
  ELPA is essential especially for large systems on hundreds or thousands of CPUs.
  For ELPA, please cite:

    Andreas Marek, Volker Blum, Rainer Johanni, Ville Havu, Bruno Lang,
    Thomas Auckenthaler, Alexander Heinecke, Hans-Joachim Bungartz, and Hermann Lederer,
    'The ELPA Library - Scalable Parallel Eigenvalue Solutions
    for Electronic Structure Theory and Computational Science'
    The Journal of Physics: Condensed Matter 26, 213201 (2014).
    http://dx.doi.org/10.1088/0953-8984/26/21/213201


  The ELSI infrastructure was used in your run to solve the Kohn-Sham electronic structure.
  Please check out http://elsi-interchange.org to learn more.
  If scalability is important for your project, please acknowledge ELSI by citing:

    V. W-z. Yu, F. Corsetti, A. Garcia, W. P. Huhn, M. Jacquelin, W. Jia,
    B. Lange, L. Lin, J. Lu, W. Mi, A. Seifitokaldani, A. Vazquez-Mayagoitia,
    C. Yang, H. Yang, and V. Blum
    'ELSI: A unified software interface for Kohn-Sham electronic structure solvers'
    Computer Physics Communications 222, 267-285 (2018).
    http://dx.doi.org/10.1016/j.cpc.2017.09.007


  For the real-space grid partitioning and parallelization used in this calculation, please cite:

    Ville Havu, Volker Blum, Paula Havu, and Matthias Scheffler,
    'Efficient O(N) integration for all-electron electronic structure calculation'
    'using numerically tabulated basis functions'
    Journal of Computational Physics 228, 8367-8379 (2009).
    http://dx.doi.org/10.1016/j.jcp.2009.08.008

  Of course, there are many other important community references, e.g., those cited in the
  above references. Our list is limited to references that describe implementations in the
  FHI-aims code. The reason is purely practical (length of this list) - please credit others as well.

------------------------------------------------------------
          Leaving FHI-aims.
          Date     :  20191128, Time     :  172515.485

          Computational steps:
          | Number of self-consistency cycles          :          262
          | Number of SCF (re)initializations          :           19
          | Number of relaxation steps                 :           18

          Detailed time accounting                     :  max(cpu_time)    wall_clock(cpu1)
          | Total time                                 :    64706.704 s       64659.377 s
          | Preparation time                           :        0.564 s           0.564 s
          | Boundary condition initalization           :       23.032 s          22.857 s
          | Grid partitioning                          :        8.984 s           8.935 s
          | Preloading free-atom quantities on grid    :       11.544 s          11.513 s
          | Free-atom superposition energy             :        1.400 s           1.372 s
          | Total time for integrations                :     1954.612 s        1951.702 s
          | Total time for solution of K.-S. equations :    42671.880 s       42642.669 s
          | Total time for EV reorthonormalization     :      320.844 s         303.878 s
          | Total time for density & force components  :    11175.088 s       11165.911 s
          | Total time for mixing & preconditioning    :      180.836 s         180.552 s
          | Total time for Hartree multipole update    :       16.916 s          16.584 s
          | Total time for Hartree multipole sum       :      288.456 s         287.743 s
          | Total time for total energy evaluation     :        9.112 s           8.732 s
          | Total time for scaled ZORA corrections     :        0.000 s           0.000 s
          | Total time for vdW correction              :     8029.344 s        8023.286 s

          Partial memory accounting:
          | Residual value for overall tracked memory usage across tasks :           0.000 MB (should be 0.000 MB)
          | Peak values for overall tracked memory usage (after allocating eigenvalue_tmp):
          |   Minimum:     1049.230 MB (on task  1)
          |   Maximum:     1068.891 MB (on task  2)
          |   Average:     1059.061 MB
          | Largest tracked array allocation (+KS_eigenvector_complex):
          |   Minimum:      353.894 MB (on task  1)
          |   Maximum:      363.725 MB (on task  2)
          |   Average:      358.810 MB
          Note:  These values currently only include a subset of arrays which are explicitly tracked.
          The "true" memory usage will be greater.

          Have a nice day.
------------------------------------------------------------
